LAMMPS data file via write_data, version 11 Aug 2017, timestep = 1000000

3540 atoms
10 atom types
2024 bonds
5 bond types
1018 angles
5 angle types
12 dihedrals
4 dihedral types
9 impropers
1 improper types

0.0000000000000000e+00 3.2704500000000003e+01 xlo xhi
0.0000000000000000e+00 3.2704500000000003e+01 ylo yhi
0.0000000000000000e+00 8.0000000000000000e+01 zlo zhi

Masses

1 1.0079
2 15.9994
3 39.0983
4 63.546
5 12.011
6 12.011
7 15.9994
8 15.9994
9 15.9994
10 1.0079

Bond Coeffs # harmonic

1 450 0.9572
2 570 1.229
3 450 1.364
4 570 1.229
5 553 0.945

Angle Coeffs # harmonic

1 100 123.32
2 85 124
3 55 104.52
4 35 113
5 100 123.32

Dihedral Coeffs # charmm

1 0.922 1 180 0
2 3.741 2 0 0
3 0.922 1 0 0
4 3.741 2 180 0

Improper Coeffs # umbrella

1 21 0

Atoms # full

3037 444 4 0.0000000000000000e+00 1.6759900000000001e+00 6.6491000000000000e-01 3.5991800000000000e+00 0 0 0
3039 444 4 0.0000000000000000e+00 1.6560500000000000e+00 2.4790000000000001e+00 1.8169999999999999e+00 0 0 0
3048 444 4 0.0000000000000000e+00 1.6560500000000000e+00 6.6205000000000003e-01 0.0000000000000000e+00 0 0 0
1372 444 2 -8.2999999999999996e-01 1.5100964081960424e+00 1.5337364904853641e+00 6.3673255291490722e+00 -4 -3 0
1374 444 1 4.1499999999999998e-01 1.6873821729582650e+00 2.1739652854437090e+00 7.0564617821849884e+00 -4 -3 0
1366 444 2 -8.2999999999999996e-01 1.5313363912577282e+00 3.4849554863641816e+00 1.1464920178043585e+01 9 -1 0
1368 444 1 4.1499999999999998e-01 1.0860036990748927e+00 2.6699547533955368e+00 1.1233218236543989e+01 9 -1 0
1949 444 1 4.1499999999999998e-01 4.1281570344824925e-01 3.0908428709081357e+00 8.2818388969363799e+00 0 0 0
2948 444 1 4.1499999999999998e-01 1.3583987849021082e+00 3.6672469766987845e+00 1.3262287533747619e+01 0 4 0
2947 444 2 -8.2999999999999996e-01 8.6026325053943919e-01 4.0255087222229866e+00 1.3996958622669961e+01 0 4 0
960 444 1 4.1499999999999998e-01 7.1346046859684686e-01 2.0510609035926120e+00 1.9952472988470436e+01 -3 2 0
2738 444 1 4.1499999999999998e-01 2.6886631811813894e-01 1.1435747678030217e+00 1.7506742422125491e+01 -1 -1 0
2737 444 2 -8.2999999999999996e-01 5.0215030512225178e-01 1.7364077019580355e+00 1.8221137497958473e+01 -1 -1 0
77 444 1 4.1499999999999998e-01 1.7231407346638459e+00 4.4716686023707652e-01 1.8884746177579505e+01 1 -2 0
2739 444 1 4.1499999999999998e-01 4.2401839317280321e-01 2.6117561684419495e+00 1.7841805481643181e+01 -1 -1 0
3054 444 4 0.0000000000000000e+00 1.6560500000000000e+00 4.2959500000000004e+00 0.0000000000000000e+00 0 0 0
3055 444 4 0.0000000000000000e+00 1.6715400000000000e+00 4.2823799999999999e+00 3.5709300000000002e+00 0 0 0
3057 444 4 0.0000000000000000e+00 1.6560500000000000e+00 6.1128000000000000e+00 1.8169999999999999e+00 0 0 0
3074 444 4 0.0000000000000000e+00 1.6560500000000000e+00 7.9297500000000003e+00 0.0000000000000000e+00 0 0 0
3075 444 4 0.0000000000000000e+00 1.6941700000000000e+00 7.9573700000000001e+00 3.5718200000000002e+00 0 0 0
1255 444 2 -8.2999999999999996e-01 1.0261242533429802e+00 7.7136317469990940e+00 6.8253439410644745e+00 2 -1 0
14 444 1 4.1499999999999998e-01 1.2822225549138462e+00 4.6532533812793346e+00 6.1566171130811238e+00 0 1 0
13 444 2 -8.2999999999999996e-01 1.8239842867215468e+00 5.3869880213881833e+00 5.8661699529232596e+00 0 1 0
1256 444 1 4.1499999999999998e-01 1.0820169147226082e+00 6.8596978285806181e+00 6.3965027230455567e+00 2 -1 0
1257 444 1 4.1499999999999998e-01 1.8953169014099600e+00 8.0975466488959835e+00 6.7098215677379232e+00 2 -1 0
1367 444 1 4.1499999999999998e-01 1.1704989793942566e+00 4.1352916913347180e+00 1.0862349061968299e+01 9 -1 0
2009 444 1 4.1499999999999998e-01 7.8432627366075935e-01 6.5739364444659456e+00 1.0766131275073828e+01 -1 6 0
2682 444 1 4.1499999999999998e-01 1.4983443378587318e+00 6.0464721586856207e+00 1.5902143363770268e+01 -1 3 0
2008 444 2 -8.2999999999999996e-01 1.4740035662395987e-01 5.8829615718110411e+00 1.0584167070368595e+01 -1 6 0
2949 444 1 4.1499999999999998e-01 1.5245844946184426e+00 4.3860648716026116e+00 1.4584247660247575e+01 0 4 0
864 444 1 4.1499999999999998e-01 9.6842837442788654e-02 4.6280163400901042e+00 1.8129576100131313e+01 -1 0 0
701 444 1 4.1499999999999998e-01 9.5844085768261733e-01 7.7270712236810954e+00 1.9272666190690561e+01 2 -2 0
863 444 1 4.1499999999999998e-01 1.1275793354162813e+00 5.5356305196843865e+00 1.8766533259701351e+01 -1 0 0
2680 444 2 -8.2999999999999996e-01 1.3936960152127029e+00 6.9800511232817497e+00 1.6085748803416031e+01 -1 3 0
2681 444 1 4.1499999999999998e-01 1.5284297054107965e+00 7.0554268591403684e+00 1.7030416601246042e+01 -1 3 0
700 444 2 -8.2999999999999996e-01 1.6577681632200096e+00 7.3075737282154289e+00 1.8771471453567010e+01 2 -2 0
862 444 2 -8.2999999999999996e-01 5.5570892179192477e-01 4.7911878354531909e+00 1.8953620857011018e+01 -1 0 0
3077 444 4 0.0000000000000000e+00 1.6560500000000000e+00 9.7467000000000006e+00 1.8169999999999999e+00 0 0 0
3093 444 4 0.0000000000000000e+00 1.6759900000000001e+00 1.1566409999999999e+01 3.5991800000000000e+00 0 0 0
3104 444 4 0.0000000000000000e+00 1.6560500000000000e+00 1.1563549999999999e+01 0.0000000000000000e+00 0 0 0
70 444 2 -8.2999999999999996e-01 1.3725514566778623e+00 1.0665292679962382e+01 6.2822986507034155e+00 1 0 0
72 444 1 4.1499999999999998e-01 5.9447961554529738e-01 1.0156189839421941e+01 6.5095666481798098e+00 1 0 0
207 444 1 4.1499999999999998e-01 1.4026637559069788e+00 9.2518162010348615e+00 1.2632254620311782e+01 4 4 0
452 444 1 4.1499999999999998e-01 2.8251815588266987e-01 8.2305838950649708e+00 1.5213514564895442e+01 0 0 0
206 444 1 4.1499999999999998e-01 7.7499145266390693e-02 8.6349476502746008e+00 1.3026345087598338e+01 4 4 0
205 444 2 -8.2999999999999996e-01 5.7840877990105288e-01 8.9310141042193312e+00 1.2266301473648408e+01 4 4 0
1803 444 1 4.1499999999999998e-01 1.8602375512182339e+00 8.2051378760817997e+00 8.7946461258065227e+00 -2 2 0
1814 444 1 4.1499999999999998e-01 1.5549549218488268e+00 1.1270559843260113e+01 1.9531605499625709e+01 3 0 0
1815 444 1 4.1499999999999998e-01 1.7065718402203334e+00 1.1640231456790922e+01 1.8071382769914091e+01 3 0 0
1813 444 2 -8.2999999999999996e-01 1.0547187598395307e+00 1.1382546734052051e+01 1.8723240120252761e+01 3 0 0
3095 444 4 0.0000000000000000e+00 1.6560500000000000e+00 1.3380500000000000e+01 1.8169999999999999e+00 0 0 0
3110 444 4 0.0000000000000000e+00 1.6560500000000000e+00 1.5197450000000000e+01 0.0000000000000000e+00 0 0 0
3111 444 4 0.0000000000000000e+00 1.6715400000000000e+00 1.5183880000000000e+01 3.5709300000000002e+00 0 0 0
127 444 2 -8.2999999999999996e-01 3.4404403626031649e-01 1.3135308983990548e+01 6.6030121143889593e+00 1 1 0
129 444 1 4.1499999999999998e-01 9.1603649750863847e-01 1.3859631844324635e+01 6.3492150518454533e+00 1 1 0
1483 444 2 -8.2999999999999996e-01 1.9289538750817046e+00 1.6128700802427179e+01 6.5839866502650910e+00 -2 3 0
128 444 1 4.1499999999999998e-01 8.3176402589906739e-01 1.2348122361934779e+01 6.3607346721396727e+00 1 1 0
1484 444 1 4.1499999999999998e-01 1.0261137916971563e+00 1.6205941033742324e+01 6.8924435704852023e+00 -2 3 0
2584 444 2 -8.2999999999999996e-01 1.6931821313153590e+00 1.3657667085918510e+01 1.3027410531776381e+01 0 -3 0
135 444 1 4.1499999999999998e-01 1.6847989765981086e+00 1.5350952774592589e+01 8.3022327822782263e+00 0 3 0
133 444 2 -8.2999999999999996e-01 1.5814650247732713e+00 1.4493729202424799e+01 8.7154180945458144e+00 0 3 0
1741 444 2 -8.2999999999999996e-01 1.0974712847877377e+00 1.3398287307852950e+01 1.5755708736975778e+01 -1 -2 0
134 444 1 4.1499999999999998e-01 1.1271398176085745e+00 1.3964532333973901e+01 8.0598486100737503e+00 0 3 0
2586 444 1 4.1499999999999998e-01 1.7181998942580030e+00 1.3332155483650405e+01 1.3927215145430182e+01 0 -3 0
2735 444 1 4.1499999999999998e-01 7.2972039437143910e-01 1.2351793279778757e+01 1.1269804219138443e+01 1 0 0
902 444 1 4.1499999999999998e-01 4.3860755427001175e-01 1.5932177336220279e+01 1.2262427582195127e+01 2 1 0
2736 444 1 4.1499999999999998e-01 1.1352307063741574e+00 1.3227332034909789e+01 1.0103232822095620e+01 1 0 0
901 444 2 -8.2999999999999996e-01 1.3531131902387830e+00 1.6164102031024644e+01 1.2424051443331043e+01 2 1 0
2734 444 2 -8.2999999999999996e-01 1.0679349399758975e+00 1.2312060358535675e+01 1.0375229132244893e+01 1 0 0
1742 444 1 4.1499999999999998e-01 1.5843908962172317e+00 1.2581301047846315e+01 1.5863763964285102e+01 -1 -2 0
903 444 1 4.1499999999999998e-01 1.7843565873732088e+00 1.5328715454359871e+01 1.2604024571696856e+01 2 1 0
797 444 1 4.1499999999999998e-01 4.4389075443559878e-01 1.2900046430622544e+01 1.9489375123841718e+01 0 -2 0
1743 444 1 4.1499999999999998e-01 1.6252322269102693e+00 1.4054240804495601e+01 1.6211148650134803e+01 -1 -2 0
796 444 2 -8.2999999999999996e-01 3.2625074518772595e-01 1.3735430141666811e+01 1.9941621452640589e+01 0 -2 0
3113 444 4 0.0000000000000000e+00 1.6560500000000000e+00 1.7014299999999999e+01 1.8169999999999999e+00 0 0 0
3130 444 4 0.0000000000000000e+00 1.6560500000000000e+00 1.8831250000000001e+01 0.0000000000000000e+00 0 0 0
3131 444 4 0.0000000000000000e+00 1.6941700000000000e+00 1.8858870000000000e+01 3.5718200000000002e+00 0 0 0
718 444 2 -8.2999999999999996e-01 5.0306948954035169e-01 2.0100709746959947e+01 6.7731021265821800e+00 -1 -3 0
719 444 1 4.1499999999999998e-01 8.6249928204987092e-01 1.9422235166750763e+01 6.2015123998983332e+00 -1 -3 0
1384 444 2 -8.2999999999999996e-01 1.5920881573202226e+00 1.7464120433388075e+01 1.0032765847413764e+01 0 2 0
1127 444 1 4.1499999999999998e-01 1.7643874791614740e+00 1.8036149388634559e+01 1.4923551537033282e+01 4 1 0
2427 444 1 4.1499999999999998e-01 4.4341518531008278e-01 1.7076204577642418e+01 8.8770799888541774e+00 4 -1 0
63 444 1 4.1499999999999998e-01 5.0763521276498702e-01 1.9115864640360325e+01 1.0034033568360263e+01 5 3 0
1385 444 1 4.1499999999999998e-01 1.5303298964888996e+00 1.6996551429698197e+01 1.0865710629591449e+01 0 2 0
1128 444 1 4.1499999999999998e-01 2.0165656493318354e+00 1.7129843920201726e+01 1.3737418420364538e+01 4 1 0
167 444 1 4.1499999999999998e-01 8.3643348405743057e-01 1.9769038574780406e+01 1.7223054237423735e+01 2 3 0
166 444 2 -8.2999999999999996e-01 1.0465010053163364e+00 1.9695933624575563e+01 1.8154053774412088e+01 2 3 0
2249 444 1 4.1499999999999998e-01 1.7533825610022742e+00 1.8603737841540344e+01 1.9753259059506529e+01 2 -1 0
168 444 1 4.1499999999999998e-01 1.7437694496054252e+00 2.0336657399685578e+01 1.8293776296548788e+01 2 3 0
3133 444 4 0.0000000000000000e+00 1.6560500000000000e+00 2.0648199999999999e+01 1.8169999999999999e+00 0 0 0
3149 444 4 0.0000000000000000e+00 1.6759900000000001e+00 2.2467910000000000e+01 3.5991800000000000e+00 0 0 0
3151 444 4 0.0000000000000000e+00 1.6560500000000000e+00 2.4282000000000000e+01 1.8169999999999999e+00 0 0 0
3160 444 4 0.0000000000000000e+00 1.6560500000000000e+00 2.2465050000000002e+01 0.0000000000000000e+00 0 0 0
434 444 1 4.1499999999999998e-01 2.4885614454112123e-01 2.2633909805559664e+01 7.7314741081309535e+00 0 1 0
435 444 1 4.1499999999999998e-01 2.3534797714358874e-01 2.1571413702075905e+01 6.6531352054554551e+00 0 1 0
2532 444 1 4.1499999999999998e-01 8.1184999085840770e-01 2.3070164369820109e+01 1.2349728239886467e+01 -2 1 0
836 444 2 -8.2999999999999996e-01 1.9760868102641640e+00 2.2463373524002716e+01 9.2465082840349755e+00 -1 -2 0
10 444 2 -8.2999999999999996e-01 1.2968550862362962e+00 2.1400195065894327e+01 1.5846910312747349e+01 5 5 0
2531 444 1 4.1499999999999998e-01 3.7586729651078743e-01 2.3676178106821776e+01 1.1032700603111271e+01 -2 1 0
11 444 1 4.1499999999999998e-01 9.4762644048889522e-01 2.0777112881555890e+01 1.5209697607975212e+01 5 5 0
2530 444 2 -8.2999999999999996e-01 5.4785043177411299e-02 2.3452945931849012e+01 1.1906374192054841e+01 -2 1 0
2456 444 1 4.1499999999999998e-01 4.3355747100010895e-02 2.3618886432165922e+01 1.8083857226983188e+01 -2 6 0
12 444 1 4.1499999999999998e-01 5.6226466941104525e-01 2.1982510745363154e+01 1.6040605391469828e+01 5 5 0
964 444 2 -8.2999999999999996e-01 1.5388481486583081e+00 2.4180899842694629e+01 1.8962297067591543e+01 -3 3 0
3166 444 4 0.0000000000000000e+00 1.6560500000000000e+00 2.6098949999999999e+01 0.0000000000000000e+00 0 0 0
3167 444 4 0.0000000000000000e+00 1.6715400000000000e+00 2.6085370000000001e+01 3.5709300000000002e+00 0 0 0
3169 444 4 0.0000000000000000e+00 1.6560500000000000e+00 2.7915800000000001e+01 1.8169999999999999e+00 0 0 0
2238 444 1 4.1499999999999998e-01 1.3035552159694450e+00 2.5630605095769230e+01 6.4481862913436014e+00 2 7 0
2780 444 1 4.1499999999999998e-01 8.2956913988710823e-01 2.7339467736577095e+01 8.9508553986541681e+00 4 5 0
2719 444 2 -8.2999999999999996e-01 1.7330709942077605e+00 2.5754147415924869e+01 1.1303937522687120e+01 0 -5 0
1555 444 2 -8.2999999999999996e-01 1.7196968619304975e+00 2.5889096394807346e+01 1.4134054731576851e+01 2 -1 0
2720 444 1 4.1499999999999998e-01 8.8132263508042918e-01 2.5407872863523792e+01 1.1037758430817332e+01 0 -5 0
2779 444 2 -8.2999999999999996e-01 1.7833643619368886e+00 2.7347220691172563e+01 9.0311504876589446e+00 4 5 0
607 444 2 -8.2999999999999996e-01 1.5990871868605581e+00 2.8084583823342147e+01 1.5828867822398728e+01 3 0 0
1557 444 1 4.1499999999999998e-01 2.0332444081540273e+00 2.6133131051853184e+01 1.3263211571529030e+01 2 -1 0
1556 444 1 4.1499999999999998e-01 7.6688555744917219e-01 2.5861013014518477e+01 1.4046909450456441e+01 2 -1 0
609 444 1 4.1499999999999998e-01 7.3453999765227507e-01 2.8236105919144816e+01 1.5446989070828916e+01 3 0 0
608 444 1 4.1499999999999998e-01 2.0319763709675205e+00 2.7491307659183910e+01 1.5214976481238715e+01 3 0 0
2184 444 1 4.1499999999999998e-01 1.6586505229226020e-01 2.4549767551490419e+01 1.9797908027535385e+01 0 -2 0
3186 444 4 0.0000000000000000e+00 1.6560500000000000e+00 2.9732749999999999e+01 0.0000000000000000e+00 0 0 0
3187 444 4 0.0000000000000000e+00 1.6941700000000000e+00 2.9760370000000002e+01 3.5718200000000002e+00 0 0 0
3189 444 4 0.0000000000000000e+00 1.6560500000000000e+00 3.1549700000000001e+01 1.8169999999999999e+00 0 0 0
1876 444 2 -8.2999999999999996e-01 1.1733829716655528e+00 2.9664297365951715e+01 6.2724273907207211e+00 -1 1 0
1877 444 1 4.1499999999999998e-01 2.9976220270571458e-01 2.9323875454122831e+01 6.4651234548612289e+00 -1 1 0
1878 444 1 4.1499999999999998e-01 1.0872685784408200e+00 3.0613018892191693e+01 6.3659359209592150e+00 -1 1 0
2405 444 1 4.1499999999999998e-01 7.1733259387380133e-01 3.1106658405749563e+01 9.5757663418714039e+00 -1 -3 0
1846 444 2 -8.2999999999999996e-01 1.9079021966376410e+00 2.9033107525327196e+01 1.1097613919748682e+01 -1 -1 0
2288 444 1 4.1499999999999998e-01 9.0318751712222756e-01 3.0793766153384087e+01 1.3321293287092539e+01 0 5 0
1848 444 1 4.1499999999999998e-01 1.0315957097551849e+00 2.8788375186715303e+01 1.1394977263910826e+01 -1 -1 0
78 444 1 4.1499999999999998e-01 1.5454716854422901e+00 3.2085583725091176e+01 1.7824653868740942e+01 1 -3 0
3038 444 4 0.0000000000000000e+00 3.4729999999999999e+00 6.6205000000000003e-01 1.8169999999999999e+00 0 0 0
3062 444 4 0.0000000000000000e+00 3.4709800000000000e+00 2.4612500000000002e+00 3.5992199999999999e+00 0 0 0
3063 444 4 0.0000000000000000e+00 3.4729999999999999e+00 2.4790000000000001e+00 0.0000000000000000e+00 0 0 0
1373 444 1 4.1499999999999998e-01 2.1774965438460696e+00 8.5855608232098668e-01 6.4895563870057265e+00 -4 -3 0
1387 444 2 -8.2999999999999996e-01 2.2227027201770735e+00 3.2585734688129571e+00 8.2736734941422601e+00 0 -5 0
1389 444 1 4.1499999999999998e-01 2.7009846175464109e+00 2.6390180575795403e+00 8.8246992526000820e+00 0 -5 0
1266 444 1 4.1499999999999998e-01 3.1016073191895979e+00 2.8555542172385434e-01 1.0165887920208307e+01 4 1 0
1264 444 2 -8.2999999999999996e-01 3.6904183905565668e+00 9.3683995035324830e-01 9.7846243270765711e+00 4 1 0
1722 444 1 4.1499999999999998e-01 3.6320436748492311e+00 1.5022682226631881e-01 8.2184987625992409e+00 0 2 0
1265 444 1 4.1499999999999998e-01 3.8117291535416746e+00 1.5856779938057051e+00 1.0477823281280994e+01 4 1 0
1388 444 1 4.1499999999999998e-01 2.8821003733974626e+00 3.8972632415240129e+00 8.0025608937911361e+00 0 -5 0
640 444 2 -8.2999999999999996e-01 3.6380526037150798e+00 8.7889271984033998e-02 1.5726577979617867e+01 -1 7 0
569 444 1 4.1499999999999998e-01 3.5998671859491607e+00 3.3859877615630576e+00 1.1742413094471896e+01 1 1 0
642 444 1 4.1499999999999998e-01 3.5634396128679118e+00 5.6826811385140474e-01 1.6551139391389796e+01 -1 7 0
3052 444 4 0.0000000000000000e+00 3.4729999999999999e+00 6.1128000000000000e+00 0.0000000000000000e+00 0 0 0
3053 444 4 0.0000000000000000e+00 3.4727800000000002e+00 6.1126199999999997e+00 3.5850399999999998e+00 0 0 0
3056 444 4 0.0000000000000000e+00 3.4729999999999999e+00 4.2959500000000004e+00 1.8169999999999999e+00 0 0 0
3076 444 4 0.0000000000000000e+00 3.4729999999999999e+00 7.9297500000000003e+00 1.8169999999999999e+00 0 0 0
15 444 1 4.1499999999999998e-01 2.6244641526019170e+00 5.3148066749005585e+00 6.3860292647050017e+00 0 1 0
712 444 2 -8.2999999999999996e-01 3.8892170196254026e+00 5.1589995974702738e+00 7.4318589600103788e+00 -7 0 0
714 444 1 4.1499999999999998e-01 3.7953085276511773e+00 6.0283918458629033e+00 7.8211792389982255e+00 -7 0 0
1956 444 1 4.1499999999999998e-01 4.0202074740716975e+00 8.1738824619347579e+00 6.4150472975998394e+00 4 2 0
509 444 1 4.1499999999999998e-01 2.9105131075499147e+00 7.8980942184423002e+00 1.5111790358000663e+01 1 2 0
1802 444 1 4.1499999999999998e-01 2.9600958271592361e+00 7.6273376593189459e+00 9.6597208843150515e+00 -2 2 0
457 444 2 -8.2999999999999996e-01 3.2287380377515822e+00 4.9257869945111334e+00 1.5670834329435923e+01 0 6 0
1801 444 2 -8.2999999999999996e-01 2.0757457037607203e+00 7.9911206613205588e+00 9.7023823890873491e+00 -2 2 0
458 444 1 4.1499999999999998e-01 4.0268422405739290e+00 5.2109213323440144e+00 1.5225906475768195e+01 0 6 0
702 444 1 4.1499999999999998e-01 2.4632320018934521e+00 7.6992462292623953e+00 1.9109188861248622e+01 2 -2 0
459 444 1 4.1499999999999998e-01 3.5080676966946354e+00 4.1914237215553731e+00 1.6217568422851379e+01 0 6 0
3072 444 4 0.0000000000000000e+00 3.4729999999999999e+00 9.7467000000000006e+00 0.0000000000000000e+00 0 0 0
3073 444 4 0.0000000000000000e+00 3.4753200000000000e+00 9.7654300000000003e+00 3.5991700000000000e+00 0 0 0
3094 444 4 0.0000000000000000e+00 3.4729999999999999e+00 1.1563549999999999e+01 1.8169999999999999e+00 0 0 0
1954 444 2 -8.2999999999999996e-01 3.3063579904152309e+00 8.7930577540909525e+00 6.5676015473159550e+00 4 2 0
1955 444 1 4.1499999999999998e-01 3.7234762664064132e+00 9.6538393620556366e+00 6.5315531831525657e+00 4 2 0
71 444 1 4.1499999999999998e-01 2.0947843051218200e+00 1.0040120045513271e+01 6.3437082812125460e+00 1 0 0
1164 444 1 4.1499999999999998e-01 3.9973420105797866e+00 1.2069528028564974e+01 6.6488685445334346e+00 1 0 0
2131 444 2 -8.2999999999999996e-01 2.6875851271656992e+00 1.0402542831153825e+01 1.1056098733817059e+01 2 0 0
1505 444 1 4.1499999999999998e-01 2.7770233354228129e+00 1.0518066434138392e+01 1.5584001909075146e+01 -4 -1 0
508 444 2 -8.2999999999999996e-01 3.5094205146886357e+00 8.6408215407578144e+00 1.5034988095691222e+01 1 2 0
2132 444 1 4.1499999999999998e-01 2.0908273072888997e+00 1.1055347720964647e+01 1.0690096163504823e+01 2 0 0
510 444 1 4.1499999999999998e-01 3.8977443642822829e+00 8.7270068437460502e+00 1.5905625312156715e+01 1 2 0
2133 444 1 4.1499999999999998e-01 2.5677819559526376e+00 9.6308249836881767e+00 1.0502627217636180e+01 2 0 0
1504 444 2 -8.2999999999999996e-01 2.7395540523660618e+00 1.1312700267044287e+01 1.6116341785797001e+01 -4 -1 0
1506 444 1 4.1499999999999998e-01 3.6458408455397842e+00 1.1465254391145606e+01 1.6383931247541124e+01 -4 -1 0
3112 444 4 0.0000000000000000e+00 3.4729999999999999e+00 1.5197450000000000e+01 1.8169999999999999e+00 0 0 0
3118 444 4 0.0000000000000000e+00 3.4709800000000000e+00 1.3362750000000000e+01 3.5992199999999999e+00 0 0 0
3119 444 4 0.0000000000000000e+00 3.4729999999999999e+00 1.3380500000000000e+01 0.0000000000000000e+00 0 0 0
2304 444 1 4.1499999999999998e-01 2.9021435124968114e+00 1.4633928081447250e+01 6.4438460720129518e+00 2 -1 0
2302 444 2 -8.2999999999999996e-01 3.5098118906193276e+00 1.3896683692511743e+01 6.3851795920987495e+00 2 -1 0
1667 444 1 4.1499999999999998e-01 3.5603264844984821e+00 1.4281221079931303e+01 9.2659914627162223e+00 1 2 0
2585 444 1 4.1499999999999998e-01 2.6060624647123740e+00 1.3639334899062032e+01 1.2740102428548541e+01 0 -3 0
7 444 2 -8.2999999999999996e-01 3.7868893887646657e+00 1.5686669277506759e+01 1.5984895615989656e+01 2 -2 0
825 444 1 4.1499999999999998e-01 3.2526621515157630e+00 1.3442366683116861e+01 1.9305526549288114e+01 0 -3 0
824 444 1 4.1499999999999998e-01 3.9534374416359799e+00 1.4567191955751326e+01 1.8573694974260384e+01 0 -3 0
9 444 1 4.1499999999999998e-01 3.6162567012290290e+00 1.5879156294706913e+01 1.6906885369956143e+01 2 -2 0
1537 444 2 -8.2999999999999996e-01 3.1772473830613288e+00 1.6160903231895922e+01 1.8475367789506834e+01 4 -7 0
1538 444 1 4.1499999999999998e-01 2.2382660749258720e+00 1.6278735399098615e+01 1.8331625345073697e+01 4 -7 0
823 444 2 -8.2999999999999996e-01 4.0441627420571855e+00 1.3643062783069560e+01 1.8806046508094081e+01 0 -3 0
3108 444 4 0.0000000000000000e+00 3.4729999999999999e+00 1.7014299999999999e+01 0.0000000000000000e+00 0 0 0
3109 444 4 0.0000000000000000e+00 3.4727800000000002e+00 1.7014119999999998e+01 3.5850399999999998e+00 0 0 0
3132 444 4 0.0000000000000000e+00 3.4729999999999999e+00 1.8831250000000001e+01 1.8169999999999999e+00 0 0 0
2032 444 2 -8.2999999999999996e-01 2.7297176513462915e+00 1.8575946622969617e+01 6.4490465167523796e+00 1 -3 0
2033 444 1 4.1499999999999998e-01 2.7812853072543651e+00 1.9228674723692468e+01 7.1472724395521912e+00 1 -3 0
1485 444 1 4.1499999999999998e-01 2.1910123328682256e+00 1.7026765836040095e+01 6.3814119426881479e+00 -2 3 0
2034 444 1 4.1499999999999998e-01 3.6026626129280959e+00 1.8575103162664089e+01 6.0563650565877909e+00 1 -3 0
8 444 1 4.1499999999999998e-01 3.3562276758204179e+00 1.6396084389307095e+01 1.5507933800493566e+01 2 -2 0
1386 444 1 4.1499999999999998e-01 2.4075942521986371e+00 1.7961232408057704e+01 1.0096494752661009e+01 0 2 0
1126 444 2 -8.2999999999999996e-01 2.3828065230150277e+00 1.7389937554203417e+01 1.4582670328217587e+01 4 1 0
1175 444 1 4.1499999999999998e-01 3.7233556630166174e+00 1.9541209543630885e+01 1.1272615349488337e+01 -1 -2 0
1174 444 2 -8.2999999999999996e-01 3.8004816637173011e+00 1.8746023961991291e+01 1.0745393055782376e+01 -1 -2 0
1539 444 1 4.1499999999999998e-01 3.4388043216508271e+00 1.6924092423013445e+01 1.8990501386186196e+01 4 -7 0
3128 444 4 0.0000000000000000e+00 3.4729999999999999e+00 2.0648199999999999e+01 0.0000000000000000e+00 0 0 0
3129 444 4 0.0000000000000000e+00 3.4753200000000000e+00 2.0666930000000001e+01 3.5991700000000000e+00 0 0 0
3150 444 4 0.0000000000000000e+00 3.4729999999999999e+00 2.2465050000000002e+01 1.8169999999999999e+00 0 0 0
3174 444 4 0.0000000000000000e+00 3.4709800000000000e+00 2.4264250000000001e+01 3.5992199999999999e+00 0 0 0
3175 444 4 0.0000000000000000e+00 3.4729999999999999e+00 2.4282000000000000e+01 0.0000000000000000e+00 0 0 0
454 444 2 -8.2999999999999996e-01 2.9468845725837580e+00 2.3056372490270061e+01 6.4242158695626772e+00 3 0 0
455 444 1 4.1499999999999998e-01 3.7146605423978398e+00 2.2654100378777819e+01 6.0181009883030230e+00 3 0 0
456 444 1 4.1499999999999998e-01 2.3989508194687605e+00 2.2316690778990203e+01 6.6866501149144231e+00 3 0 0
2809 444 2 -8.2999999999999996e-01 3.5956432613486369e+00 2.0487967326784105e+01 8.3258311202354047e+00 -2 -4 0
2018 444 1 4.1499999999999998e-01 2.2030616931564340e+00 2.4399396514984748e+01 1.5032956993508632e+01 0 3 0
2017 444 2 -8.2999999999999996e-01 2.8630167911494380e+00 2.3717233553726800e+01 1.5156835434792233e+01 0 3 0
1613 444 1 4.1499999999999998e-01 3.2830460703481732e+00 2.1087958279674208e+01 1.5547836452636764e+01 2 0 0
2784 444 1 4.1499999999999998e-01 2.7095716455298096e+00 2.3113210933334262e+01 1.2428129384740577e+01 0 -2 0
2019 444 1 4.1499999999999998e-01 2.3829667951803026e+00 2.2896298273190528e+01 1.5047979747639221e+01 0 3 0
478 444 2 -8.2999999999999996e-01 3.9274970310094059e+00 2.4344713263901902e+01 9.8363011279369665e+00 -1 -3 0
838 444 1 4.1499999999999998e-01 2.4093072893931038e+00 2.3298640102490349e+01 9.4222413559138207e+00 -1 -2 0
2782 444 2 -8.2999999999999996e-01 2.2586231289845897e+00 2.2319074789101041e+01 1.2714878591342302e+01 0 -2 0
2783 444 1 4.1499999999999998e-01 2.9616254417865324e+00 2.1692346352127615e+01 1.2885849859571278e+01 0 -2 0
839 444 1 4.1499999999999998e-01 2.6891190985865694e+00 2.1866059191516729e+01 9.0206035360906984e+00 -1 -2 0
888 444 1 4.1499999999999998e-01 3.7271444394795950e+00 2.4050003952213725e+01 1.3719981661986090e+01 -4 -1 0
886 444 2 -8.2999999999999996e-01 4.0865134916094279e+00 2.4242378222851219e+01 1.2853911257380288e+01 -4 -1 0
313 444 2 -8.2999999999999996e-01 3.0112170786849290e+00 2.1911249249208286e+01 1.9648848749620409e+01 1 -2 0
966 444 1 4.1499999999999998e-01 2.1196344173900274e+00 2.3491362637071688e+01 1.9283945385433128e+01 -3 3 0
3164 444 4 0.0000000000000000e+00 3.4729999999999999e+00 2.7915800000000001e+01 0.0000000000000000e+00 0 0 0
3165 444 4 0.0000000000000000e+00 3.4727800000000002e+00 2.7915620000000001e+01 3.5850399999999998e+00 0 0 0
3168 444 4 0.0000000000000000e+00 3.4729999999999999e+00 2.6098949999999999e+01 1.8169999999999999e+00 0 0 0
2237 444 1 4.1499999999999998e-01 2.4756490849568107e+00 2.4728115608804437e+01 6.7700619005935527e+00 2 7 0
2236 444 2 -8.2999999999999996e-01 2.2109405362192875e+00 2.5647817610056215e+01 6.7524682891192258e+00 2 7 0
945 444 1 4.1499999999999998e-01 2.9652416922911238e+00 2.7177546388688686e+01 6.2729405531606561e+00 3 1 0
943 444 2 -8.2999999999999996e-01 3.4436254033702185e+00 2.7965690001697119e+01 6.0156262671050014e+00 3 1 0
480 444 1 4.1499999999999998e-01 3.4612531528011092e+00 2.4537293796084679e+01 1.0649788582914470e+01 -1 -3 0
2781 444 1 4.1499999999999998e-01 2.0872002186429333e+00 2.6759212011585454e+01 8.3396575056469437e+00 4 5 0
2721 444 1 4.1499999999999998e-01 2.0981605228295277e+00 2.6133866180583460e+01 1.0504715615213382e+01 0 -5 0
1847 444 1 4.1499999999999998e-01 2.0726865480782592e+00 2.8466210607218336e+01 1.0344151327970867e+01 -1 -1 0
2852 444 1 4.1499999999999998e-01 2.2940767609319477e+00 2.7965005073080086e+01 1.7401595512157449e+01 0 1 0
931 444 2 -8.2999999999999996e-01 3.8045799219566705e+00 2.5774442231213026e+01 1.8943125325413760e+01 0 -5 0
932 444 1 4.1499999999999998e-01 3.5994740375528318e+00 2.6684934945120482e+01 1.8730598641838920e+01 0 -5 0
2851 444 2 -8.2999999999999996e-01 2.9246276740839336e+00 2.8282948347496948e+01 1.8047776243415875e+01 0 1 0
965 444 1 4.1499999999999998e-01 2.0925983777143484e+00 2.4960489341176508e+01 1.8919485368699931e+01 -3 3 0
3184 444 4 0.0000000000000000e+00 3.4729999999999999e+00 3.1549700000000001e+01 0.0000000000000000e+00 0 0 0
3185 444 4 0.0000000000000000e+00 3.4753200000000000e+00 3.1568429999999999e+01 3.5991700000000000e+00 0 0 0
3188 444 4 0.0000000000000000e+00 3.4729999999999999e+00 2.9732749999999999e+01 1.8169999999999999e+00 0 0 0
1720 444 2 -8.2999999999999996e-01 3.4932700444390474e+00 3.2457275158124254e+01 7.3588442130396956e+00 0 1 0
944 444 1 4.1499999999999998e-01 2.9617869460617596e+00 2.8683664935809777e+01 6.4262058525141512e+00 3 1 0
1721 444 1 4.1499999999999998e-01 3.1607846221740332e+00 3.1580419648248458e+01 7.5507028462940449e+00 0 1 0
2713 444 2 -8.2999999999999996e-01 2.4090082461316604e+00 3.0714579524796154e+01 1.4446249165578608e+01 4 2 0
660 444 1 4.1499999999999998e-01 3.4714039459797683e+00 3.0036316430175326e+01 9.2740292654127714e+00 2 -1 0
2715 444 1 4.1499999999999998e-01 2.7094698921005884e+00 3.1572949117194266e+01 1.4744841352625349e+01 4 2 0
2714 444 1 4.1499999999999998e-01 2.2120733027511719e+00 3.0235822506232445e+01 1.5251383062525035e+01 4 2 0
658 444 2 -8.2999999999999996e-01 2.6737550679107294e+00 3.0259171725626810e+01 8.7941073258877456e+00 2 -1 0
659 444 1 4.1499999999999998e-01 2.2689357996461368e+00 2.9414683205436713e+01 8.5961363644315671e+00 2 -1 0
2060 444 1 4.1499999999999998e-01 2.1131080020844681e+00 3.0851972029166561e+01 1.1249764500662032e+01 0 -5 0
2059 444 2 -8.2999999999999996e-01 2.6050944112853114e+00 3.1662001589135013e+01 1.1384054869570393e+01 0 -5 0
2061 444 1 4.1499999999999998e-01 2.9964744840388287e+00 3.1563975578019850e+01 1.2252066785519032e+01 0 -5 0
1205 444 1 4.1499999999999998e-01 3.4643300223331073e+00 2.8616961997716693e+01 1.1884860167140216e+01 1 -1 0
1194 444 1 4.1499999999999998e-01 2.7390719794916545e+00 2.8617954919506680e+01 1.9931233170897041e+01 1 -3 0
76 444 2 -8.2999999999999996e-01 2.0790894338798576e+00 3.2315027404580313e+01 1.8585468935321931e+01 1 -3 0
2384 444 1 4.1499999999999998e-01 3.3801459289702742e+00 3.2016071339677559e+01 1.9897580456877318e+01 2 -2 0
183 444 1 4.1499999999999998e-01 4.0188020984617525e+00 3.1081740667268839e+01 1.6575125084732068e+01 -2 -5 0
2853 444 1 4.1499999999999998e-01 3.3818853900608952e+00 2.8998008311374434e+01 1.7605242015847065e+01 0 1 0
3042 444 4 0.0000000000000000e+00 5.2898399999999999e+00 6.6205000000000003e-01 0.0000000000000000e+00 0 0 0
3043 444 4 0.0000000000000000e+00 5.2703899999999999e+00 6.6017000000000003e-01 3.5993800000000000e+00 0 0 0
3045 444 4 0.0000000000000000e+00 5.2898399999999999e+00 2.4790000000000001e+00 1.8169999999999999e+00 0 0 0
1595 444 1 4.1499999999999998e-01 6.0971125600472735e+00 2.1617615711876703e+00 6.9404429843251192e+00 3 2 0
1069 444 2 -8.2999999999999996e-01 4.6421041927783202e+00 2.2827039645702270e+00 1.4376025352860225e+01 -2 3 0
570 444 1 4.1499999999999998e-01 4.9405542037486541e+00 3.2078180804248677e+00 1.1062185142134020e+01 1 1 0