LAMMPS data file via write_data, version 11 Aug 2017, timestep = 1000000

3567 atoms
11 atom types
2024 bonds
5 bond types
1018 angles
5 angle types
12 dihedrals
4 dihedral types
9 impropers
1 improper types

0.0000000000000000e+00 3.2704500000000003e+01 xlo xhi
0.0000000000000000e+00 3.2704500000000003e+01 ylo yhi
0.0000000000000000e+00 8.0000000000000000e+01 zlo zhi

Masses

1 1.0079
2 15.9994
3 39.0983
4 63.546
5 12.011
6 1.0079
7 12.011
8 15.9994
9 15.9994
10 15.9994
11 1.0079

Bond Coeffs # harmonic

1 450 0.9572
2 570 1.229
3 450 1.364
4 570 1.229
5 553 0.945

Angle Coeffs # harmonic

1 100 123.32
2 85 124
3 55 104.52
4 35 113
5 100 123.32

Dihedral Coeffs # charmm

1 0.922 1 180 0
2 3.741 2 0 0
3 0.922 1 0 0
4 3.741 2 180 0

Improper Coeffs # umbrella

1 21 0

Atoms # full

3037 444 4 0.0000000000000000e+00 1.6683500000000000e+00 6.6761000000000004e-01 3.5975600000000001e+00 0 0 0
3039 444 4 0.0000000000000000e+00 1.6560500000000000e+00 2.4790000000000001e+00 1.8169999999999999e+00 0 0 0
3048 444 4 0.0000000000000000e+00 1.6560500000000000e+00 6.6205000000000003e-01 0.0000000000000000e+00 0 0 0
1981 444 2 -8.2999999999999996e-01 4.1321558403024833e-01 8.5240691695202986e-01 6.8364606647457524e+00 4 -4 0
2774 444 1 4.1499999999999998e-01 2.0190067863518983e+00 2.5759497683333583e+00 6.4388245435122240e+00 0 4 0
1982 444 1 4.1499999999999998e-01 1.0018255953748552e+00 2.5006069381438295e-01 6.3815435745046685e+00 4 -4 0
2809 444 2 -8.2999999999999996e-01 2.5129171461556687e-01 3.7123664107074741e+00 6.8254726349514305e+00 -3 0 0
211 444 2 -8.2999999999999996e-01 2.3401530318039546e-01 8.0207969279461078e-01 1.1312868829433764e+01 3 -3 0
2895 444 1 4.1499999999999998e-01 1.5661416404917372e+00 1.0040733947674771e+00 1.5690255094644007e+01 3 -2 0
2289 444 1 4.1499999999999998e-01 7.5625191079960341e-01 1.7543827277240933e+00 8.5233425000358487e+00 -1 1 0
213 444 1 4.1499999999999998e-01 8.0847282851810487e-01 1.4110029281623235e+00 1.0848710736841433e+01 3 -3 0
2894 444 1 4.1499999999999998e-01 2.9179285875329664e-01 1.8098321937937556e+00 1.5826939692160202e+01 3 -2 0
212 444 1 4.1499999999999998e-01 7.6819651289330060e-01 1.8105916620257585e-02 1.1440412108071996e+01 3 -3 0
2287 444 2 -8.2999999999999996e-01 1.3300620309952960e+00 2.1120802372302929e+00 9.2008579462586724e+00 -1 1 0
2992 444 2 -8.2999999999999996e-01 7.3660840303684993e-01 3.6092763837725776e+00 1.8425158248953995e+01 -3 -3 0
2893 444 2 -8.2999999999999996e-01 1.2071348387307774e+00 1.7879494031572831e+00 1.6106049487396131e+01 3 -2 0
2993 444 1 4.1499999999999998e-01 9.1745505599231669e-01 3.0834521027133364e+00 1.7646033719977432e+01 -3 -3 0
3054 444 4 0.0000000000000000e+00 1.6560500000000000e+00 4.2959500000000004e+00 0.0000000000000000e+00 0 0 0
3055 444 4 0.0000000000000000e+00 1.6641400000000000e+00 4.2780300000000002e+00 3.5826600000000002e+00 0 0 0
3057 444 4 0.0000000000000000e+00 1.6560500000000000e+00 6.1128000000000000e+00 1.8169999999999999e+00 0 0 0
3074 444 4 0.0000000000000000e+00 1.6560500000000000e+00 7.9297500000000003e+00 0.0000000000000000e+00 0 0 0
3075 444 4 0.0000000000000000e+00 1.6760299999999999e+00 7.9546599999999996e+00 3.5885199999999999e+00 0 0 0
897 444 1 4.1499999999999998e-01 1.1501218365070545e+00 4.8354274774097155e+00 7.7184336127386901e+00 2 -4 0
2455 444 2 -8.2999999999999996e-01 7.7610531482586842e-01 8.0332340274403506e+00 7.7794004894320601e+00 -2 1 0
2457 444 1 4.1499999999999998e-01 9.9399741293179900e-01 7.1292275014468380e+00 8.0063962790208283e+00 -2 1 0
684 444 1 4.1499999999999998e-01 9.4137520239328021e-01 6.9820368317943329e+00 1.2517631769693200e+01 1 -1 0
682 444 2 -8.2999999999999996e-01 1.0712798887186228e+00 7.7804827376788861e+00 1.2005928500673923e+01 1 -1 0
895 444 2 -8.2999999999999996e-01 1.3268497652905893e+00 5.5198108917846378e+00 8.3638933992044695e+00 2 -4 0
2396 444 1 4.1499999999999998e-01 1.5781783522613315e+00 6.3792458231717566e+00 1.4762086229202373e+01 0 1 0
896 444 1 4.1499999999999998e-01 9.1938045808438307e-01 5.2011132697282161e+00 9.1692704269548955e+00 2 -4 0
2397 444 1 4.1499999999999998e-01 5.2321130983600495e-01 5.5390805766438351e+00 1.4074290765609190e+01 0 1 0
2395 444 2 -8.2999999999999996e-01 1.4631992475882192e+00 5.7197535807551043e+00 1.4077921200826523e+01 0 1 0
683 444 1 4.1499999999999998e-01 1.9040801649755881e+00 8.1334263590030709e+00 1.2319147817304628e+01 1 -1 0
1477 444 2 -8.2999999999999996e-01 1.7840672315376100e+00 8.1506123274937572e+00 1.5670269666136754e+01 0 0 0
1790 444 1 4.1499999999999998e-01 1.5763619186604048e+00 5.3708669578005814e+00 1.7884698646323162e+01 0 -2 0
1478 444 1 4.1499999999999998e-01 1.5173528474459881e+00 7.5933093114567320e+00 1.6401370395240971e+01 0 0 0
1789 444 2 -8.2999999999999996e-01 1.3197298147072398e+00 6.2790783854868897e+00 1.7724937080611461e+01 0 -2 0
1791 444 1 4.1499999999999998e-01 3.6935043104667425e-01 6.2443497350785897e+00 1.7616284726938137e+01 0 -2 0
3077 444 4 0.0000000000000000e+00 1.6560500000000000e+00 9.7467000000000006e+00 1.8169999999999999e+00 0 0 0
3096 444 4 0.0000000000000000e+00 1.6683500000000000e+00 1.1569110000000000e+01 3.5975600000000001e+00 0 0 0
3107 444 4 0.0000000000000000e+00 1.6560500000000000e+00 1.1563549999999999e+01 0.0000000000000000e+00 0 0 0
2183 444 1 4.1499999999999998e-01 5.9275856051464781e-01 1.1283674333099441e+01 6.7881575217128125e+00 2 -1 0
2182 444 2 -8.2999999999999996e-01 1.4957606584291505e+00 1.1162984184929071e+01 7.0818469691446770e+00 2 -1 0
2456 444 1 4.1499999999999998e-01 1.5849702889912274e+00 8.3901980199130755e+00 7.4125954038439863e+00 -2 1 0
1432 444 2 -8.2999999999999996e-01 2.8456454385007918e-01 1.2023362449325671e+01 1.3458275768967098e+01 7 3 0
2184 444 1 4.1499999999999998e-01 1.4398840709022855e+00 1.1166846441125399e+01 8.0374071908590263e+00 2 -1 0
550 444 2 -8.2999999999999996e-01 9.7710822902202576e-01 1.1707433918677124e+01 9.9230083998370180e+00 3 -2 0
551 444 1 4.1499999999999998e-01 1.7613337177368060e-01 1.1984825101884471e+01 1.0367671478058863e+01 3 -2 0
3020 444 3 1.0000000000000000e+00 8.5988911290653947e-01 1.0896774071520081e+01 1.5812972841630668e+01 -3 1 0
2616 444 1 4.1499999999999998e-01 1.8771565733861711e-01 8.3113470893673487e+00 1.0656206383840578e+01 2 2 0
1433 444 1 4.1499999999999998e-01 1.1790828922544310e+00 1.2250450971612272e+01 1.3204308947898502e+01 7 3 0
2615 444 1 4.1499999999999998e-01 1.0150389156911471e-01 8.1921729913738375e+00 9.1494683882344710e+00 2 2 0
2861 444 1 4.1499999999999998e-01 4.8747405788547700e-02 9.1745059255028618e+00 1.8637305508828167e+01 0 1 0
3098 444 4 0.0000000000000000e+00 1.6560500000000000e+00 1.3380500000000000e+01 1.8169999999999999e+00 0 0 0
3113 444 4 0.0000000000000000e+00 1.6560500000000000e+00 1.5197450000000000e+01 0.0000000000000000e+00 0 0 0
3114 444 4 0.0000000000000000e+00 1.6641400000000000e+00 1.5179530000000000e+01 3.5826600000000002e+00 0 0 0
2191 444 2 -8.2999999999999996e-01 9.8250797724341787e-01 1.4951931874958719e+01 6.0881137206089910e+00 -2 0 0
2193 444 1 4.1499999999999998e-01 6.4261935074122323e-01 1.4137282022200370e+01 6.4583205657930494e+00 -2 0 0
2192 444 1 4.1499999999999998e-01 2.8695345478859807e-01 1.5592221643364102e+01 6.2379899818994904e+00 -2 0 0
552 444 1 4.1499999999999998e-01 1.4606393129539612e+00 1.2519396944743290e+01 9.7708695902449829e+00 3 -2 0
2441 444 1 4.1499999999999998e-01 1.1984725804927962e-01 1.5626090899821252e+01 1.5193532619142537e+01 2 -2 0
2440 444 2 -8.2999999999999996e-01 1.7174243308494386e-01 1.4954449766224275e+01 1.4513505227016896e+01 2 -2 0
2351 444 1 4.1499999999999998e-01 1.7477221977233923e-01 1.3658624185825282e+01 1.7147127230362567e+01 0 1 0
2350 444 2 -8.2999999999999996e-01 9.9207371554333745e-01 1.3438740917860180e+01 1.6700022874123501e+01 0 1 0
2352 444 1 4.1499999999999998e-01 1.1355133682722547e+00 1.4163844745232380e+01 1.6091843488961082e+01 0 1 0
1742 444 1 4.1499999999999998e-01 1.2183476140731435e-01 1.6317470581470015e+01 1.7360543755136206e+01 1 -4 0
3116 444 4 0.0000000000000000e+00 1.6560500000000000e+00 1.7014299999999999e+01 1.8169999999999999e+00 0 0 0
3133 444 4 0.0000000000000000e+00 1.6560500000000000e+00 1.8831250000000001e+01 0.0000000000000000e+00 0 0 0
3134 444 4 0.0000000000000000e+00 1.6760299999999999e+00 1.8856159999999999e+01 3.5885199999999999e+00 0 0 0
2038 444 2 -8.2999999999999996e-01 1.4450972032432698e+00 1.8444621737268044e+01 6.4582739766315802e+00 1 0 0
2040 444 1 4.1499999999999998e-01 1.9411437226817583e+00 1.7637924660490416e+01 6.3189559363012577e+00 1 0 0
1623 444 1 4.1499999999999998e-01 1.7561579688402811e+00 1.6361968387902596e+01 9.3110680343971470e+00 5 -1 0
1913 444 1 4.1499999999999998e-01 8.0624499408725736e-01 1.7244202440590229e+01 1.2122296879742555e+01 -3 -6 0
1912 444 2 -8.2999999999999996e-01 8.4765181768830666e-01 1.8097035293408144e+01 1.1689637638796025e+01 -3 -6 0
131 444 1 4.1499999999999998e-01 1.3074750787844609e+00 1.9807867394877725e+01 1.1916010843702757e+01 -5 -1 0
1116 444 1 4.1499999999999998e-01 4.9275002739325569e-01 1.9365728744542949e+01 1.5002682373796645e+01 2 4 0
1914 444 1 4.1499999999999998e-01 4.8700473435502389e-01 1.7941092178996062e+01 1.0816798708436073e+01 -3 -6 0
2689 444 2 -8.2999999999999996e-01 1.5446467498341668e-01 1.6762580733913126e+01 9.0346971276708334e+00 4 1 0
1114 444 2 -8.2999999999999996e-01 1.1317524399019739e-01 1.8661405181376509e+01 1.5528118626976367e+01 2 4 0
1741 444 2 -8.2999999999999996e-01 8.5275319709974939e-01 1.6399240069028373e+01 1.6747923359806698e+01 1 -4 0
459 444 1 4.1499999999999998e-01 1.8068388319776145e+00 1.9750107311429254e+01 1.6836860410110294e+01 1 2 0
457 444 2 -8.2999999999999996e-01 1.8655991177632485e+00 1.9476330540247151e+01 1.7752188984464514e+01 1 2 0
1743 444 1 4.1499999999999998e-01 7.2740334794030959e-01 1.7254902546080199e+01 1.6337605524028465e+01 1 -4 0
20 444 1 4.1499999999999998e-01 2.0629229932408752e-01 2.0009960997202832e+01 1.8762330346171073e+01 -1 -1 0
3136 444 4 0.0000000000000000e+00 1.6560500000000000e+00 2.0648199999999999e+01 1.8169999999999999e+00 0 0 0
3155 444 4 0.0000000000000000e+00 1.6683500000000000e+00 2.2470610000000001e+01 3.5975600000000001e+00 0 0 0
3157 444 4 0.0000000000000000e+00 1.6560500000000000e+00 2.4282000000000000e+01 1.8169999999999999e+00 0 0 0
3166 444 4 0.0000000000000000e+00 1.6560500000000000e+00 2.2465050000000002e+01 0.0000000000000000e+00 0 0 0
2669 444 1 4.1499999999999998e-01 5.9802726545938723e-01 2.2889925137370994e+01 6.5380324393084299e+00 2 -2 0
1739 444 1 4.1499999999999998e-01 1.9167230752298272e+00 2.1831759004332365e+01 7.7621437905240720e+00 0 -5 0
135 444 1 4.1499999999999998e-01 1.4240075361646718e+00 2.3479840497131590e+01 1.0320754249413021e+01 4 0 0
1436 444 1 4.1499999999999998e-01 1.6384344313819623e+00 2.1846548447022297e+01 1.5072991877542954e+01 0 0 0
1435 444 2 -8.2999999999999996e-01 1.8286502974459347e+00 2.1101435370860273e+01 1.5642953481065694e+01 0 0 0
2793 444 1 4.1499999999999998e-01 1.1575110437894374e+00 2.3650325018804953e+01 1.3911081799952669e+01 3 6 0
2651 444 1 4.1499999999999998e-01 7.0334660207268729e-01 2.1142206167886435e+01 9.6895662333142685e+00 -3 1 0
2652 444 1 4.1499999999999998e-01 5.4564605451598791e-01 2.0667165575119739e+01 8.2608037682589419e+00 -3 1 0
2650 444 2 -8.2999999999999996e-01 1.1402618933868092e+00 2.1146345562171586e+01 8.8379091264618150e+00 -3 1 0
130 444 2 -8.2999999999999996e-01 1.5093126404414630e+00 2.0740723872136726e+01 1.1843392563738799e+01 -5 -1 0
2791 444 2 -8.2999999999999996e-01 2.0040659084420378e+00 2.3229205535667283e+01 1.4060199859466831e+01 3 6 0
133 444 2 -8.2999999999999996e-01 8.5863560872497102e-01 2.4161179995015946e+01 9.9569377159942203e+00 4 0 0
1035 444 1 4.1499999999999998e-01 1.2355853241476948e+00 2.2691457736721585e+01 1.9937294248014997e+01 0 -4 0
1033 444 2 -8.2999999999999996e-01 5.7001542217320322e-01 2.3166459975716112e+01 1.9439677876148298e+01 0 -4 0
1034 444 1 4.1499999999999998e-01 7.4939113999377915e-01 2.4089416901344482e+01 1.9619141814563918e+01 0 -4 0
3172 444 4 0.0000000000000000e+00 1.6560500000000000e+00 2.6098949999999999e+01 0.0000000000000000e+00 0 0 0
3173 444 4 0.0000000000000000e+00 1.6641400000000000e+00 2.6081029999999998e+01 3.5826600000000002e+00 0 0 0
3175 444 4 0.0000000000000000e+00 1.6560500000000000e+00 2.7915800000000001e+01 1.8169999999999999e+00 0 0 0
2059 444 2 -8.2999999999999996e-01 3.7345609888714304e-01 2.5691556596907727e+01 6.3493909377152029e+00 -2 1 0
1446 444 1 4.1499999999999998e-01 1.3384233458310759e+00 2.7334205206529678e+01 6.3617243931664778e+00 0 -2 0
2061 444 1 4.1499999999999998e-01 2.4789206713395620e-01 2.4752066020579360e+01 6.4828964230795059e+00 -2 1 0
1444 444 2 -8.2999999999999996e-01 1.6749146048597201e+00 2.8144311294754921e+01 6.7447826004602041e+00 0 -2 0
1553 444 1 4.1499999999999998e-01 1.5883389714208358e+00 2.5718675777084052e+01 7.5888048397080627e+00 -1 4 0
2597 444 1 4.1499999999999998e-01 7.6804731153783012e-01 2.7355894035268793e+01 9.8581738780430666e+00 3 -3 0
1585 444 2 -8.2999999999999996e-01 1.2702887819250550e+00 2.6230436902424337e+01 1.2478965072348835e+01 6 4 0
1586 444 1 4.1499999999999998e-01 1.2177057164337608e+00 2.5667226829962786e+01 1.1706785400834971e+01 6 4 0
660 444 1 4.1499999999999998e-01 1.0936326720538717e-01 2.7399111502259345e+01 1.3391419599346040e+01 -3 2 0
1587 444 1 4.1499999999999998e-01 1.0720625065819285e+00 2.5649656128182546e+01 1.3213561551387091e+01 6 4 0
2598 444 1 4.1499999999999998e-01 9.6122001865082352e-01 2.8184554132214000e+01 8.6060152189064176e+00 3 -3 0
2596 444 2 -8.2999999999999996e-01 4.0761272018561351e-01 2.8104425628322275e+01 9.3827589545712904e+00 3 -3 0
2933 444 1 4.1499999999999998e-01 7.8794289740865309e-01 2.7258877926905328e+01 1.5667427308710524e+01 -4 0 0
134 444 1 4.1499999999999998e-01 1.4555073992063374e+00 2.4741040931656396e+01 9.4839294901164681e+00 4 0 0
2934 444 1 4.1499999999999998e-01 1.1567809941474962e+00 2.5951387445921334e+01 1.6335500969113852e+01 -4 0 0
2932 444 2 -8.2999999999999996e-01 1.3905678707778770e+00 2.6879156777492788e+01 1.6306870675951508e+01 -4 0 0
2527 444 2 -8.2999999999999996e-01 1.8848010354397116e+00 2.8401431104600103e+01 1.8740476767217316e+01 -1 -5 0
2529 444 1 4.1499999999999998e-01 2.0348757917474671e+00 2.8004446073694872e+01 1.7882506707495317e+01 -1 -5 0
1766 444 1 4.1499999999999998e-01 1.3560852232001739e+00 2.6661070223676596e+01 1.9776413443133858e+01 0 -4 0
1765 444 2 -8.2999999999999996e-01 1.3507068682402534e+00 2.5704394416338005e+01 1.9807637975589426e+01 0 -4 0
3192 444 4 0.0000000000000000e+00 1.6560500000000000e+00 2.9732749999999999e+01 0.0000000000000000e+00 0 0 0
3193 444 4 0.0000000000000000e+00 1.6760299999999999e+00 2.9757660000000001e+01 3.5885199999999999e+00 0 0 0
3195 444 4 0.0000000000000000e+00 1.6560500000000000e+00 3.1549700000000001e+01 1.8169999999999999e+00 0 0 0
715 444 2 -8.2999999999999996e-01 5.4643968441540958e-01 3.0588193319421265e+01 6.2654788463383202e+00 1 -7 0
716 444 1 4.1499999999999998e-01 1.4469084555168596e+00 3.0912186406449869e+01 6.2858773021990313e+00 1 -7 0
717 444 1 4.1499999999999998e-01 6.3366721246955049e-01 2.9635266836638593e+01 6.2890181953045081e+00 1 -7 0
2325 444 1 4.1499999999999998e-01 8.6650618074847197e-01 3.1720979934775599e+01 1.5483811857997619e+01 7 -7 0
1817 444 1 4.1499999999999998e-01 1.2350051370367114e+00 3.0689496011580172e+01 1.0734499654453598e+01 -3 0 0
1818 444 1 4.1499999999999998e-01 4.2858929776046739e-01 2.9493793793456206e+01 1.0274190138830720e+01 -3 0 0
1816 444 2 -8.2999999999999996e-01 3.6900929841373664e-01 3.0287908961948748e+01 1.0805286336110711e+01 -3 0 0
2528 444 1 4.1499999999999998e-01 1.2589980320995688e+00 2.9106033665060146e+01 1.8572733336061962e+01 -1 -5 0
311 444 1 4.1499999999999998e-01 1.2968630762020908e-01 3.0511554825106810e+01 1.8412290970994992e+01 2 3 0
2416 444 2 -8.2999999999999996e-01 1.6654100107817944e+00 3.1681914669453974e+01 1.8721714503850528e+01 1 -2 0
2417 444 1 4.1499999999999998e-01 2.0290642305183515e+00 3.1777141101864661e+01 1.9602010183909659e+01 1 -2 0
3038 444 4 0.0000000000000000e+00 3.4729999999999999e+00 6.6205000000000003e-01 1.8169999999999999e+00 0 0 0
3062 444 4 0.0000000000000000e+00 3.4767299999999999e+00 2.4698099999999998e+00 3.5941500000000000e+00 0 0 0
3063 444 4 0.0000000000000000e+00 3.4729999999999999e+00 2.4790000000000001e+00 0.0000000000000000e+00 0 0 0
2775 444 1 4.1499999999999998e-01 3.0274854656294510e+00 1.4533353918230505e+00 6.3179825448826215e+00 0 4 0
2773 444 2 -8.2999999999999996e-01 2.9091938532496835e+00 2.3279774534713455e+00 6.6884420561627111e+00 0 4 0
750 444 1 4.1499999999999998e-01 3.4889354899361043e+00 2.4472454168708899e+00 9.7467493323475338e+00 -4 0 0
1262 444 1 4.1499999999999998e-01 3.7562460690868207e+00 3.9952829008737321e+00 1.3654150502672469e+01 3 0 0
1407 444 1 4.1499999999999998e-01 2.1738991272574877e+00 3.0871914474258029e+00 1.5489545539062407e+01 3 -4 0
1405 444 2 -8.2999999999999996e-01 2.8345369869195323e+00 3.7044393565594613e+00 1.5175227520016383e+01 3 -4 0
2288 444 1 4.1499999999999998e-01 2.0600369947662278e+00 2.4989433565398924e+00 8.7174268454098360e+00 -1 1 0
1145 444 1 4.1499999999999998e-01 3.6832893230139652e+00 1.8415100457676898e+00 1.8209031327192022e+01 2 1 0
1146 444 1 4.1499999999999998e-01 3.3368471075822810e+00 1.3423643905553067e+00 1.9595655449810270e+01 2 1 0
1144 444 2 -8.2999999999999996e-01 3.5374942951974244e+00 1.0391368251379107e+00 1.8710203242988801e+01 2 1 0
2687 444 1 4.1499999999999998e-01 3.9233138335274469e+00 3.7638686216495558e+00 1.6736343094912908e+01 -1 -2 0
1984 444 2 -8.2999999999999996e-01 2.8983032397508071e+00 3.9853358144436544e+00 1.9962947124366909e+01 -5 -2 0
1985 444 1 4.1499999999999998e-01 3.6288119088283324e+00 3.9133004796261246e+00 1.9348617658635003e+01 -5 -2 0
1986 444 1 4.1499999999999998e-01 2.1237461687238932e+00 4.0660650209581481e+00 1.9406371143412432e+01 -5 -2 0
3052 444 4 0.0000000000000000e+00 3.4729999999999999e+00 6.1128000000000000e+00 0.0000000000000000e+00 0 0 0
3053 444 4 0.0000000000000000e+00 3.4672900000000002e+00 6.1129199999999999e+00 3.5858599999999998e+00 0 0 0
3056 444 4 0.0000000000000000e+00 3.4729999999999999e+00 4.2959500000000004e+00 1.8169999999999999e+00 0 0 0
3076 444 4 0.0000000000000000e+00 3.4729999999999999e+00 7.9297500000000003e+00 1.8169999999999999e+00 0 0 0
1362 444 1 4.1499999999999998e-01 2.6351262425447683e+00 6.1231556238423570e+00 6.4695495912328358e+00 3 3 0
1361 444 1 4.1499999999999998e-01 3.3913413761920475e+00 7.4277410824818881e+00 6.6040518662519760e+00 3 3 0
1360 444 2 -8.2999999999999996e-01 3.5141574600949754e+00 6.4784568530191207e+00 6.6010679205208378e+00 3 3 0
1406 444 1 4.1499999999999998e-01 2.3312952086387693e+00 4.4573402796693120e+00 1.4865193887206383e+01 3 -4 0
1479 444 1 4.1499999999999998e-01 2.7387058896043932e+00 8.0828775570327132e+00 1.5652695382166579e+01 0 0 0
1802 444 1 4.1499999999999998e-01 2.4029168556122276e+00 7.9602764636390679e+00 1.9602111186047587e+01 4 0 0
1501 444 2 -8.2999999999999996e-01 3.9890813661924622e+00 8.0758628510351400e+00 1.8990266812555642e+01 1 2 0
3072 444 4 0.0000000000000000e+00 3.4729999999999999e+00 9.7467000000000006e+00 0.0000000000000000e+00 0 0 0
3073 444 4 0.0000000000000000e+00 3.4824400000000000e+00 9.7586099999999991e+00 3.5977800000000002e+00 0 0 0
3097 444 4 0.0000000000000000e+00 3.4729999999999999e+00 1.1563549999999999e+01 1.8169999999999999e+00 0 0 0
1768 444 2 -8.2999999999999996e-01 3.1494041449057586e+00 9.1009126152612723e+00 6.7097698253894524e+00 2 -1 0
1770 444 1 4.1499999999999998e-01 2.6387338334973522e+00 9.9023060256180884e+00 6.8247317549326016e+00 2 -1 0
1769 444 1 4.1499999999999998e-01 4.0597821826701708e+00 9.3963152526289324e+00 6.6963181976369777e+00 2 -1 0
349 444 2 -8.2999999999999996e-01 3.8495213342355910e+00 1.1151663220839774e+01 1.4902498128243913e+01 1 -2 0
501 444 1 4.1499999999999998e-01 3.0509019107773705e+00 8.9674052667759714e+00 1.3737633790779206e+01 1 1 0
2399 444 1 4.1499999999999998e-01 3.5890767418810170e+00 9.5557263185901640e+00 1.1347087621291518e+01 1 -1 0
2398 444 2 -8.2999999999999996e-01 3.6950094492159189e+00 9.8344134906850549e+00 1.0437502614333519e+01 1 -1 0
2400 444 1 4.1499999999999998e-01 2.8866579899870040e+00 1.0305413561612054e+01 1.0235119782946423e+01 1 -1 0
350 444 1 4.1499999999999998e-01 3.5066048473455353e+00 1.1550827722302733e+01 1.4102930851942476e+01 1 -2 0
499 444 2 -8.2999999999999996e-01 3.3677266097719727e+00 8.7436694265619863e+00 1.2862535913178890e+01 1 1 0
1502 444 1 4.1499999999999998e-01 4.0865431919767303e+00 8.6286421493030439e+00 1.8214916151160576e+01 1 2 0
3115 444 4 0.0000000000000000e+00 3.4729999999999999e+00 1.5197450000000000e+01 1.8169999999999999e+00 0 0 0
3121 444 4 0.0000000000000000e+00 3.4767299999999999e+00 1.3371309999999999e+01 3.5941500000000000e+00 0 0 0
3122 444 4 0.0000000000000000e+00 3.4729999999999999e+00 1.3380500000000000e+01 0.0000000000000000e+00 0 0 0
1771 444 2 -8.2999999999999996e-01 3.5372273736175375e+00 1.3363592795331581e+01 6.5768310147945508e+00 -4 1 0
1773 444 1 4.1499999999999998e-01 2.9229045426267533e+00 1.3841093270998813e+01 7.1343550369801836e+00 -4 1 0
1772 444 1 4.1499999999999998e-01 3.0382436036259790e+00 1.2610804147358950e+01 6.2597237503630403e+00 -4 1 0
2348 444 1 4.1499999999999998e-01 2.4820484671734819e+00 1.5806316603188632e+01 6.2513430079566223e+00 3 -6 0
2349 444 1 4.1499999999999998e-01 3.9397568392055748e+00 1.6015121063598809e+01 6.6026032220498800e+00 3 -6 0
2631 444 1 4.1499999999999998e-01 3.2331402641146001e+00 1.2498227138931794e+01 1.2123494760283480e+01 0 -1 0
2630 444 1 4.1499999999999998e-01 2.8299486333296922e+00 1.3790330393005744e+01 1.2801580594506911e+01 0 -1 0
2629 444 2 -8.2999999999999996e-01 2.7125781701360032e+00 1.2841572552471384e+01 1.2849690740228333e+01 0 -1 0
2291 444 1 4.1499999999999998e-01 3.7800810079978691e+00 1.6314311863725745e+01 1.2581206572356905e+01 1 -3 0
1343 444 1 4.1499999999999998e-01 3.4777371718610293e+00 1.3521607801702942e+01 9.9348394433040585e+00 -4 -6 0
2290 444 2 -8.2999999999999996e-01 3.6476756056991668e+00 1.5427859388246759e+01 1.2917215952077477e+01 1 -3 0
1344 444 1 4.1499999999999998e-01 2.6453983710421860e+00 1.4754959877239415e+01 9.6556439643184664e+00 -4 -6 0
1342 444 2 -8.2999999999999996e-01 2.7187391921658595e+00 1.3825890278732237e+01 9.4372788637904019e+00 -4 -6 0
833 444 1 4.1499999999999998e-01 2.5747924714807615e+00 1.3280950496952679e+01 1.7526047368747996e+01 -3 2 0
832 444 2 -8.2999999999999996e-01 3.4661880775317404e+00 1.2972540727914639e+01 1.7688926628195947e+01 -3 2 0
2468 444 1 4.1499999999999998e-01 2.9817520689018653e+00 1.6299992319812183e+01 1.7454523415318711e+01 7 1 0
834 444 1 4.1499999999999998e-01 3.9766449294106887e+00 1.3315746279638530e+01 1.6955526493048367e+01 -3 2 0
3111 444 4 0.0000000000000000e+00 3.4729999999999999e+00 1.7014299999999999e+01 0.0000000000000000e+00 0 0 0
3112 444 4 0.0000000000000000e+00 3.4672900000000002e+00 1.7014420000000001e+01 3.5858599999999998e+00 0 0 0
3135 444 4 0.0000000000000000e+00 3.4729999999999999e+00 1.8831250000000001e+01 1.8169999999999999e+00 0 0 0
538 444 2 -8.2999999999999996e-01 3.8863363251096374e+00 1.9707091726362279e+01 7.0061432731682389e+00 2 3 0
2042 444 1 4.1499999999999998e-01 2.0866367994822177e+00 1.9063697420655060e+01 6.8067048104034225e+00 1 0 0
2347 444 2 -8.2999999999999996e-01 3.1010164018497117e+00 1.6473197896575673e+01 6.5486331654569776e+00 3 -6 0
539 444 1 4.1499999999999998e-01 3.8887702994329363e+00 1.8857898281068252e+01 7.4478402725429822e+00 2 3 0
1622 444 1 4.1499999999999998e-01 2.8909814659305062e+00 1.6575918324470667e+01 8.3321420173373344e+00 5 -1 0
1621 444 2 -8.2999999999999996e-01 2.7015863379285134e+00 1.6505218625911365e+01 9.2677503086271020e+00 5 -1 0
219 444 1 4.1499999999999998e-01 3.8331004953188454e+00 1.7608071019289635e+01 9.7114656889960962e+00 -2 0 0
458 444 1 4.1499999999999998e-01 2.3494386264161196e+00 2.0181056438574927e+01 1.8182878059477034e+01 1 2 0
2469 444 1 4.1499999999999998e-01 2.6293841365068453e+00 1.7698927859132244e+01 1.7913556315104181e+01 7 1 0
2467 444 2 -8.2999999999999996e-01 3.2832007277206938e+00 1.7008471985473182e+01 1.8023221087099806e+01 7 1 0
2276 444 1 4.1499999999999998e-01 3.8124735540454417e+00 1.6492843662520002e+01 1.9832863579197149e+01 1 1 0
3131 444 4 0.0000000000000000e+00 3.4729999999999999e+00 2.0648199999999999e+01 0.0000000000000000e+00 0 0 0
3132 444 4 0.0000000000000000e+00 3.4824400000000000e+00 2.0660110000000000e+01 3.5977800000000002e+00 0 0 0
3156 444 4 0.0000000000000000e+00 3.4729999999999999e+00 2.2465050000000002e+01 1.8169999999999999e+00 0 0 0
3180 444 4 0.0000000000000000e+00 3.4767299999999999e+00 2.4272810000000000e+01 3.5941600000000000e+00 0 0 0
3181 444 4 0.0000000000000000e+00 3.4729999999999999e+00 2.4282000000000000e+01 0.0000000000000000e+00 0 0 0
2036 444 1 4.1499999999999998e-01 3.3782747888226261e+00 2.3543593321509935e+01 6.6891875013149571e+00 0 11 0
1740 444 1 4.1499999999999998e-01 2.7938341651402392e+00 2.1399614390885802e+01 6.6063660197896725e+00 0 -5 0
1738 444 2 -8.2999999999999996e-01 2.3247718296639501e+00 2.2155747949779023e+01 6.9591748544300458e+00 0 -5 0
2066 444 1 4.1499999999999998e-01 3.4881689965184330e+00 2.4413193281429020e+01 1.1306957194372151e+01 -1 1 0
2065 444 2 -8.2999999999999996e-01 3.1183845646026693e+00 2.3551797754648582e+01 1.1500580572422921e+01 -1 1 0
2792 444 1 4.1499999999999998e-01 2.4190508227158052e+00 2.3212564452135407e+01 1.3197794314062168e+01 3 6 0
1776 444 1 4.1499999999999998e-01 3.0154798431449525e+00 2.1084254415007386e+01 9.1013421793219003e+00 2 -2 0
132 444 1 4.1499999999999998e-01 2.4279802243144593e+00 2.0767379716859217e+01 1.1575864292222674e+01 -5 -1 0
1774 444 2 -8.2999999999999996e-01 3.7203661249640585e+00 2.0981361527829538e+01 9.7407015403518749e+00 2 -2 0
2067 444 1 4.1499999999999998e-01 3.7131727785833699e+00 2.2934160597353291e+01 1.1075158914537433e+01 -1 1 0
1437 444 1 4.1499999999999998e-01 2.5996655336651235e+00 2.0690699807320261e+01 1.5251720055035930e+01 0 0 0
1807 444 2 -8.2999999999999996e-01 3.7778767965123596e+00 2.1837688180073638e+01 1.8628396765800979e+01 2 1 0
1576 444 2 -8.2999999999999996e-01 3.4464851938902510e+00 2.3833967527429195e+01 1.6833151424604786e+01 -2 -2 0
1578 444 1 4.1499999999999998e-01 3.4389224954149831e+00 2.3265309729728518e+01 1.7603089230753920e+01 -2 -2 0
1577 444 1 4.1499999999999998e-01 2.8419756995537604e+00 2.3415803525998772e+01 1.6220012456973588e+01 -2 -2 0
1809 444 1 4.1499999999999998e-01 3.2914117575916459e+00 2.1812187147258154e+01 1.9452371044936363e+01 2 1 0
3170 444 4 0.0000000000000000e+00 3.4729999999999999e+00 2.7915800000000001e+01 0.0000000000000000e+00 0 0 0
3171 444 4 0.0000000000000000e+00 3.4672900000000002e+00 2.7915920000000000e+01 3.5858599999999998e+00 0 0 0
3174 444 4 0.0000000000000000e+00 3.4729999999999999e+00 2.6098949999999999e+01 1.8169999999999999e+00 0 0 0
1445 444 1 4.1499999999999998e-01 2.6212301294555482e+00 2.8099482999201481e+01 6.6080007341170957e+00 0 -2 0
1554 444 1 4.1499999999999998e-01 3.0796838612921982e+00 2.5597524325111280e+01 7.8192564110133613e+00 -1 4 0
782 444 1 4.1499999999999998e-01 3.5310827445497717e+00 2.7246572706241590e+01 1.3464678675138202e+01 -6 -1 0
1552 444 2 -8.2999999999999996e-01 2.2462404120408817e+00 2.5678827526810274e+01 8.2829305995722624e+00 -1 4 0
783 444 1 4.1499999999999998e-01 3.8173417262953846e+00 2.6320325663977005e+01 1.2301915896711620e+01 -6 -1 0
2703 444 1 4.1499999999999998e-01 3.1377079056947066e+00 2.6798677187153924e+01 1.6477024466735372e+01 -1 2 0
2701 444 2 -8.2999999999999996e-01 4.0311418812231699e+00 2.6633937132452296e+01 1.6778468207106865e+01 -1 2 0
1959 444 1 4.1499999999999998e-01 4.0676277534987149e+00 2.8566459492695358e+01 1.6762060678882932e+01 -4 1 0
3190 444 4 0.0000000000000000e+00 3.4729999999999999e+00 3.1549700000000001e+01 0.0000000000000000e+00 0 0 0
3191 444 4 0.0000000000000000e+00 3.4824400000000000e+00 3.1561610000000002e+01 3.5977800000000002e+00 0 0 0
3194 444 4 0.0000000000000000e+00 3.4729999999999999e+00 2.9732749999999999e+01 1.8169999999999999e+00 0 0 0
526 444 2 -8.2999999999999996e-01 3.0059078826849150e+00 3.1593381401065013e+01 6.6359408354683778e+00 -2 1 0
527 444 1 4.1499999999999998e-01 3.4230968335956180e+00 3.0734816325990536e+01 6.7070089375189470e+00 -2 1 0
528 444 1 4.1499999999999998e-01 3.6837651903395745e+00 3.2212710545130754e+01 6.9064450061537856e+00 -2 1 0
533 444 1 4.1499999999999998e-01 3.4662002584675835e+00 3.2460328475649945e+01 1.5827647100924798e+01 2 -1 0
300 444 1 4.1499999999999998e-01 3.1741325561451341e+00 3.1138424096982298e+01 1.1490831664150011e+01 -2 2 0
298 444 2 -8.2999999999999996e-01 2.5396879691432899e+00 3.1855112413679720e+01 1.1499184978330314e+01 -2 2 0
532 444 2 -8.2999999999999996e-01 2.6868191905144978e+00 3.1946372590230691e+01 1.5616348873768024e+01 2 -1 0
299 444 1 4.1499999999999998e-01 3.0742724862874633e+00 3.2649021624806132e+01 1.1486560721697950e+01 -2 2 0
534 444 1 4.1499999999999998e-01 2.9374386055839077e+00 3.1041957195545844e+01 1.5804644202657169e+01 2 -1 0
2418 444 1 4.1499999999999998e-01 2.2838910787385940e+00 3.2143369933034194e+01 1.8155346832787863e+01 1 -2 0
3042 444 4 0.0000000000000000e+00 5.2898399999999999e+00 6.6205000000000003e-01 0.0000000000000000e+00 0 0 0
3043 444 4 0.0000000000000000e+00 5.2833899999999998e+00 6.6559000000000001e-01 3.5945999999999998e+00 0 0 0
3045 444 4 0.0000000000000000e+00 5.2898399999999999e+00 2.4790000000000001e+00 1.8169999999999999e+00 0 0 0
346 444 2 -8.2999999999999996e-01 5.0980251470476157e+00 1.5348784461746223e-01 7.6917860991477625e+00 2 0 0
347 444 1 4.1499999999999998e-01 5.8948031106056433e+00 2.7352512524028166e-01 7.1750961941578053e+00 2 0 0