LAMMPS data file via write_data, version 11 Aug 2017, timestep = 1000000

3540 atoms
11 atom types
2024 bonds
5 bond types
1018 angles
5 angle types
12 dihedrals
4 dihedral types
9 impropers
1 improper types

0.0000000000000000e+00 3.2704500000000003e+01 xlo xhi
0.0000000000000000e+00 3.2704500000000003e+01 ylo yhi
0.0000000000000000e+00 8.0000000000000000e+01 zlo zhi

Masses

1 1.0079
2 15.9994
3 39.0983
4 63.546
5 15.9994
6 12.011
7 12.011
8 15.9994
9 15.9994
10 15.9994
11 1.0079

Bond Coeffs # harmonic

1 450 0.9572
2 570 1.229
3 450 1.364
4 570 1.229
5 553 0.945

Angle Coeffs # harmonic

1 100 123.32
2 85 124
3 55 104.52
4 35 113
5 100 123.32

Dihedral Coeffs # charmm

1 0.922 1 180 0
2 3.741 2 0 0
3 0.922 1 0 0
4 3.741 2 180 0

Improper Coeffs # umbrella

1 21 0

Atoms # full

3049 444 4 0.0000000000000000e+00 1.6594700000000000e+00 6.5920999999999996e-01 3.5753400000000002e+00 0 0 0
3051 444 4 0.0000000000000000e+00 1.6560500000000000e+00 2.4790000000000001e+00 1.8169999999999999e+00 0 0 0
3060 444 4 0.0000000000000000e+00 1.6560500000000000e+00 6.6205000000000003e-01 0.0000000000000000e+00 0 0 0
957 444 1 4.1499999999999998e-01 2.4207055334204253e-01 2.9458172013861832e+00 6.5248302089890613e+00 -3 -5 0
956 444 1 4.1499999999999998e-01 1.6937636125767936e+00 3.3710236696166147e+00 6.4641533249068992e+00 -3 -5 0
849 444 1 4.1499999999999998e-01 6.0702823500953718e-01 1.0679825189487226e+00 6.6465730737815569e+00 1 -3 0
955 444 2 -8.2999999999999996e-01 8.1863649067764876e-01 3.6943108469183432e+00 6.6783259604997003e+00 -3 -5 0
2446 444 2 -8.2999999999999996e-01 1.3857084234198114e+00 3.5364519489575716e+00 9.7094911507266666e+00 -1 0 0
2448 444 1 4.1499999999999998e-01 7.3755165678343870e-01 3.5815846027046181e+00 9.0065774545524047e+00 -1 0 0
1639 444 2 -8.2999999999999996e-01 8.6461025490032362e-01 3.1081061688728093e+00 1.4750429779001937e+01 1 3 0
2972 444 1 4.1499999999999998e-01 1.8023194957603936e+00 7.0094152568891199e-01 1.0181176397615562e+01 -2 -3 0
1641 444 1 4.1499999999999998e-01 8.0466306303502300e-01 3.1242526391723198e+00 1.3795245256152914e+01 1 3 0
1640 444 1 4.1499999999999998e-01 2.5815422501188412e-01 3.7895022392964437e+00 1.5040502735972563e+01 1 3 0
823 444 2 -8.2999999999999996e-01 1.0583825040534715e-01 3.8536399687546274e+00 1.2396775485665119e+01 3 -4 0
2902 444 2 -8.2999999999999996e-01 1.4478819119824278e+00 1.6105774122054324e+00 1.6897672286469554e+01 0 3 0
2903 444 1 4.1499999999999998e-01 1.1901306754675749e+00 1.9589493229123112e+00 1.6044188668117574e+01 0 3 0
2904 444 1 4.1499999999999998e-01 7.0318752627348979e-01 1.7991992110081745e+00 1.7468710349604081e+01 0 3 0
3066 444 4 0.0000000000000000e+00 1.6560500000000000e+00 4.2959500000000004e+00 0.0000000000000000e+00 0 0 0
3067 444 4 0.0000000000000000e+00 1.6457500000000000e+00 4.3038999999999996e+00 3.5737800000000002e+00 0 0 0
3069 444 4 0.0000000000000000e+00 1.6560500000000000e+00 6.1128000000000000e+00 1.8169999999999999e+00 0 0 0
3086 444 4 0.0000000000000000e+00 1.6560500000000000e+00 7.9297500000000003e+00 0.0000000000000000e+00 0 0 0
3087 444 4 0.0000000000000000e+00 1.6436400000000000e+00 7.9178800000000003e+00 3.5731700000000002e+00 0 0 0
1938 444 1 4.1499999999999998e-01 1.1154801582745848e+00 6.8859961108123935e+00 6.6153031110849208e+00 4 1 0
1937 444 1 4.1499999999999998e-01 1.3203694303257998e+00 5.4037739885766571e+00 6.8453759670747418e+00 4 1 0
1936 444 2 -8.2999999999999996e-01 1.7284655029910729e+00 6.2565650002341382e+00 6.9951688284790396e+00 4 1 0
220 444 2 -8.2999999999999996e-01 1.2164150336168644e+00 6.2170876109026869e+00 1.2272900605812087e+01 -1 -3 0
222 444 1 4.1499999999999998e-01 7.9086440960824211e-01 7.0744120053621726e+00 1.2261359868704808e+01 -1 -3 0
825 444 1 4.1499999999999998e-01 4.6085310294044757e-01 4.7385294939211624e+00 1.2481432761126820e+01 3 -4 0
255 444 1 4.1499999999999998e-01 1.3889172628407491e+00 7.8891843268685227e+00 1.5655714660846886e+01 0 1 0
2786 444 1 4.1499999999999998e-01 2.0191925130493424e+00 7.0153744595833425e+00 8.7867196995784429e+00 -1 -1 0
2447 444 1 4.1499999999999998e-01 1.0864256556975826e+00 4.1782823315042972e+00 1.0353475205047635e+01 -1 0 0
2888 444 1 4.1499999999999998e-01 5.6584867005673034e-01 6.1541826404381537e+00 1.7496618292649636e+01 -3 4 0
2887 444 2 -8.2999999999999996e-01 1.8526550828109070e-01 5.7290551919930159e+00 1.8265159190848610e+01 -3 4 0
2889 444 1 4.1499999999999998e-01 2.5749416699419386e-01 6.3822272360159982e+00 1.8961134774830796e+01 -3 4 0
3089 444 4 0.0000000000000000e+00 1.6560500000000000e+00 9.7467000000000006e+00 1.8169999999999999e+00 0 0 0
3105 444 4 0.0000000000000000e+00 1.6594700000000000e+00 1.1560710000000000e+01 3.5753400000000002e+00 0 0 0
3116 444 4 0.0000000000000000e+00 1.6560500000000000e+00 1.1563549999999999e+01 0.0000000000000000e+00 0 0 0
1316 444 1 4.1499999999999998e-01 1.9918600472628351e-01 9.3571194941979901e+00 6.5106136948983044e+00 0 2 0
1798 444 2 -8.2999999999999996e-01 3.4942291181819057e-01 1.0934101738029780e+01 6.6177266127211158e+00 5 2 0
1800 444 1 4.1499999999999998e-01 1.1500890163651640e+00 1.1439680500485508e+01 6.7575692459757315e+00 5 2 0
1315 444 2 -8.2999999999999996e-01 2.2775926439334407e-01 8.4147992347569414e+00 6.3449395634394836e+00 0 2 0
2430 444 1 4.1499999999999998e-01 2.0369509921557452e+00 8.7761311174628798e+00 6.8647921871032711e+00 -4 -2 0
2673 444 1 4.1499999999999998e-01 1.7832469964131550e+00 9.6742405503404711e+00 9.4954422424949705e+00 2 3 0
2581 444 2 -8.2999999999999996e-01 5.3491460272773539e-01 8.7310720894542424e+00 1.2197417518244100e+01 2 3 0
2583 444 1 4.1499999999999998e-01 3.1558395997017386e-01 8.9551523274772453e+00 1.1293031363030083e+01 2 3 0
2671 444 2 -8.2999999999999996e-01 1.3161470536164748e+00 1.0418176357097488e+01 9.8757178833372823e+00 2 3 0
2672 444 1 4.1499999999999998e-01 2.0072559765984441e+00 1.0990926360563286e+01 1.0208221171639311e+01 2 3 0
2582 444 1 4.1499999999999998e-01 9.7721379056690816e-01 9.5091067296188658e+00 1.2536926823738755e+01 2 3 0
2286 444 1 4.1499999999999998e-01 2.5468401357265991e-01 1.1949023225375203e+01 9.7227867052719130e+00 -3 3 0
254 444 1 4.1499999999999998e-01 1.7963514996787699e+00 9.1342762098778056e+00 1.6414423384376239e+01 0 1 0
829 444 2 -8.2999999999999996e-01 1.5126036810194494e+00 1.0752954706120592e+01 1.7401917270879629e+01 4 -4 0
830 444 1 4.1499999999999998e-01 1.8044517824266242e+00 1.0318167963584651e+01 1.8203176829461846e+01 4 -4 0
831 444 1 4.1499999999999998e-01 5.6565848239731631e-01 1.0614259878578954e+01 1.7384876311045897e+01 4 -4 0
690 444 1 4.1499999999999998e-01 1.3676035539230780e+00 8.6819733055351733e+00 1.9643003131768726e+01 0 2 0
688 444 2 -8.2999999999999996e-01 2.0286446359620127e+00 9.3653824613503396e+00 1.9532509253728566e+01 0 2 0
253 444 2 -8.2999999999999996e-01 1.7139844889592117e+00 8.1850362952680822e+00 1.6506029255660710e+01 0 1 0
3107 444 4 0.0000000000000000e+00 1.6560500000000000e+00 1.3380500000000000e+01 1.8169999999999999e+00 0 0 0
3122 444 4 0.0000000000000000e+00 1.6560500000000000e+00 1.5197450000000000e+01 0.0000000000000000e+00 0 0 0
3123 444 4 0.0000000000000000e+00 1.6457500000000000e+00 1.5205399999999999e+01 3.5737800000000002e+00 0 0 0
467 444 1 4.1499999999999998e-01 7.8283190671808334e-01 1.5632477476697309e+01 7.4340643440932057e+00 1 2 0
960 444 1 4.1499999999999998e-01 1.9477026779225579e+00 1.3852324085763096e+01 6.8535371313843410e+00 0 3 0
466 444 2 -8.2999999999999996e-01 2.8635137145877976e-01 1.5254234694457690e+01 8.1597855458115784e+00 1 2 0
1553 444 1 4.1499999999999998e-01 1.4598832063043488e+00 1.4758750605558054e+01 9.4712261984077006e+00 -2 -1 0
2829 444 1 4.1499999999999998e-01 1.6247923240242848e+00 1.3832797424306182e+01 1.5661995183466107e+01 0 -2 0
2827 444 2 -8.2999999999999996e-01 1.3064403742377697e+00 1.3740350034410030e+01 1.4764032206770636e+01 0 -2 0
2643 444 1 4.1499999999999998e-01 3.6194514109956649e-01 1.2563778926949114e+01 1.3246350605127954e+01 4 2 0
959 444 1 4.1499999999999998e-01 1.8957261009020578e+00 1.3405977029370286e+01 8.2992092499606915e+00 0 3 0
2772 444 1 4.1499999999999998e-01 8.3567501527914534e-01 1.4534999066172528e+01 1.9472908058831205e+01 3 0 0
1053 444 1 4.1499999999999998e-01 1.7164516151967404e+00 1.2699272705662576e+01 1.7702771080299275e+01 0 2 0
3125 444 4 0.0000000000000000e+00 1.6560500000000000e+00 1.7014299999999999e+01 1.8169999999999999e+00 0 0 0
3142 444 4 0.0000000000000000e+00 1.6560500000000000e+00 1.8831250000000001e+01 0.0000000000000000e+00 0 0 0
3143 444 4 0.0000000000000000e+00 1.6436400000000000e+00 1.8819379999999999e+01 3.5731700000000002e+00 0 0 0
2403 444 1 4.1499999999999998e-01 1.8666674834178598e+00 1.6719174196202221e+01 6.0924477599980662e+00 3 -4 0
560 444 1 4.1499999999999998e-01 6.3855734038322221e-01 1.9425813393622278e+01 7.2090575273878690e+00 2 1 0
2580 444 1 4.1499999999999998e-01 1.3004190354319694e+00 1.7532465734434258e+01 9.4358953719298047e+00 -1 2 0
394 444 2 -8.2999999999999996e-01 1.2013896105357260e+00 1.9493835884952144e+01 1.2606774796588043e+01 1 0 0
2990 444 1 4.1499999999999998e-01 3.9590620359939044e-01 1.7583377023393471e+01 1.2802305193467051e+01 -2 -1 0
2690 444 1 4.1499999999999998e-01 7.4326753281254920e-01 1.8650710371101678e+01 1.5474396141524817e+01 -3 0 0
2578 444 2 -8.2999999999999996e-01 3.4982129998362516e-01 1.7633163751080762e+01 9.4854611331744980e+00 -1 2 0
2579 444 1 4.1499999999999998e-01 2.8561671544700398e-03 1.6825738962074414e+01 9.1061023510704597e+00 -1 2 0
395 444 1 4.1499999999999998e-01 1.8593567654862078e+00 1.9079617276358480e+01 1.2048443637052126e+01 1 0 0
396 444 1 4.1499999999999998e-01 1.6586363526144516e+00 1.9664943441023105e+01 1.3430108891054791e+01 1 0 0
544 444 2 -8.2999999999999996e-01 1.4577504328412847e+00 1.8517479352610323e+01 1.8590946861586669e+01 -3 1 0
546 444 1 4.1499999999999998e-01 1.3991895895619386e+00 1.8041032416474142e+01 1.9419077768058120e+01 -3 1 0
545 444 1 4.1499999999999998e-01 6.8005641336049882e-01 1.8246889847853748e+01 1.8102884313050403e+01 -3 1 0
3145 444 4 0.0000000000000000e+00 1.6560500000000000e+00 2.0648199999999999e+01 1.8169999999999999e+00 0 0 0
3161 444 4 0.0000000000000000e+00 1.6594700000000000e+00 2.2462209999999999e+01 3.5753400000000002e+00 0 0 0
3163 444 4 0.0000000000000000e+00 1.6560500000000000e+00 2.4282000000000000e+01 1.8169999999999999e+00 0 0 0
3172 444 4 0.0000000000000000e+00 1.6560500000000000e+00 2.2465050000000002e+01 0.0000000000000000e+00 0 0 0
403 444 2 -8.2999999999999996e-01 1.3659939338405707e+00 2.2097101101970566e+01 6.5687910628281232e+00 4 0 0
404 444 1 4.1499999999999998e-01 1.4545455151456055e+00 2.2343907749600429e+01 7.4893761613023795e+00 4 0 0
405 444 1 4.1499999999999998e-01 1.8446836104244864e+00 2.1271525055547635e+01 6.4945482604937590e+00 4 0 0
818 444 1 4.1499999999999998e-01 5.5651686263117717e-01 2.2870184112207301e+01 9.3787390891038953e+00 2 1 0
819 444 1 4.1499999999999998e-01 1.4047794926961055e+00 2.1898392698777602e+01 1.0171182860777582e+01 2 1 0
817 444 2 -8.2999999999999996e-01 1.2503173244761168e+00 2.2217842754853812e+01 9.2821806388400461e+00 2 1 0
2958 444 1 4.1499999999999998e-01 6.4626710018212785e-01 2.2488732948225639e+01 1.2494720232553577e+01 1 -2 0
2956 444 2 -8.2999999999999996e-01 1.3625730516666505e+00 2.2104595673210127e+01 1.1989173850912639e+01 1 -2 0
2957 444 1 4.1499999999999998e-01 1.3417692490108550e+00 2.1174020821885936e+01 1.2212401097132661e+01 1 -2 0
215 444 1 4.1499999999999998e-01 1.8692002251598583e+00 2.2486096092249571e+01 1.7133001581778196e+01 -2 3 0
508 444 2 -8.2999999999999996e-01 7.4746610863818508e-01 2.1608504429324018e+01 1.9955321802534062e+01 -1 1 0
510 444 1 4.1499999999999998e-01 1.1759710085296855e+00 2.0752596154539287e+01 1.9949313533400360e+01 -1 1 0
509 444 1 4.1499999999999998e-01 1.3666419518865855e+00 2.2189976852628181e+01 1.9514024681383166e+01 -1 1 0
214 444 2 -8.2999999999999996e-01 1.6522057632969791e+00 2.1734246828916230e+01 1.6581759336715827e+01 -2 3 0
3178 444 4 0.0000000000000000e+00 1.6560500000000000e+00 2.6098949999999999e+01 0.0000000000000000e+00 0 0 0
3179 444 4 0.0000000000000000e+00 1.6457500000000000e+00 2.6106900000000000e+01 3.5737800000000002e+00 0 0 0
3181 444 4 0.0000000000000000e+00 1.6560500000000000e+00 2.7915800000000001e+01 1.8169999999999999e+00 0 0 0
1118 444 1 4.1499999999999998e-01 3.0670711738215523e-02 2.5616946735183447e+01 6.3876042357324581e+00 -1 0 0
1117 444 2 -8.2999999999999996e-01 9.6868381147623306e-01 2.5629694415215013e+01 6.5778696039940012e+00 -1 0 0
1119 444 1 4.1499999999999998e-01 1.0453952913962399e+00 2.6159252982071397e+01 7.3715416628024357e+00 -1 0 0
1267 444 2 -8.2999999999999996e-01 1.4388519608107526e+00 2.7390671633614936e+01 8.7587982823917283e+00 1 2 0
158 444 1 4.1499999999999998e-01 8.2947466729634045e-01 2.5015296673110786e+01 1.1105019814179339e+01 0 2 0
157 444 2 -8.2999999999999996e-01 1.5758086300809981e+00 2.5477423732725335e+01 1.1486670345810611e+01 0 2 0
159 444 1 4.1499999999999998e-01 1.4294241267554859e+00 2.5430660340541138e+01 1.2431454714914612e+01 0 2 0
1268 444 1 4.1499999999999998e-01 1.4256583527386906e+00 2.6895438917569042e+01 9.5778235636871223e+00 1 2 0
1757 444 1 4.1499999999999998e-01 1.2408550561447129e+00 2.6083332211888521e+01 1.4943947783941994e+01 0 1 0
1269 444 1 4.1499999999999998e-01 6.0665627707788117e-01 2.7863555915855525e+01 8.7508530105048195e+00 1 2 0
1756 444 2 -8.2999999999999996e-01 1.3331303024933163e+00 2.5377027848388106e+01 1.4304532362499254e+01 0 1 0
570 444 1 4.1499999999999998e-01 1.0933991421617151e+00 2.5925338911634483e+01 1.9267070450010980e+01 -4 2 0
568 444 2 -8.2999999999999996e-01 2.5348270546270074e-01 2.6128131859370509e+01 1.9678952750527195e+01 -4 2 0
1926 444 1 4.1499999999999998e-01 1.1188301277147723e+00 2.8064286021814546e+01 1.6152978655522134e+01 -1 -2 0
1924 444 2 -8.2999999999999996e-01 7.8017065613617020e-01 2.7169446889049283e+01 1.6181349619852121e+01 -1 -2 0
3198 444 4 0.0000000000000000e+00 1.6560500000000000e+00 2.9732749999999999e+01 0.0000000000000000e+00 0 0 0
3199 444 4 0.0000000000000000e+00 1.6436400000000000e+00 2.9720880000000001e+01 3.5731700000000002e+00 0 0 0
3201 444 4 0.0000000000000000e+00 1.6560500000000000e+00 3.1549700000000001e+01 1.8169999999999999e+00 0 0 0
227 444 1 4.1499999999999998e-01 7.7579843649675417e-01 3.0881038467417238e+01 6.7455117792098909e+00 3 2 0
2475 444 1 4.1499999999999998e-01 1.4774219678305287e+00 2.9475439762273155e+01 1.1782093952961803e+01 -1 0 0
2473 444 2 -8.2999999999999996e-01 1.4198753146238876e+00 2.9853760084099239e+01 1.0904715006321613e+01 -1 0 0
28 444 2 -8.2999999999999996e-01 1.1470135147106126e+00 3.0405673592300353e+01 1.5912326956910510e+01 -2 0 0
125 444 1 4.1499999999999998e-01 3.4120648558850114e-01 3.1806954673116003e+01 1.0680649862751286e+01 -3 0 0
29 444 1 4.1499999999999998e-01 3.3685610024393936e-01 3.0316521713505630e+01 1.5410401976914246e+01 -2 0 0
124 444 2 -8.2999999999999996e-01 2.7871274719194265e-02 3.2420241954963565e+01 1.0015870554804538e+01 -3 0 0
1764 444 1 4.1499999999999998e-01 4.2782868554796505e-01 2.9707825607356106e+01 9.7137320680903549e+00 -1 -1 0
30 444 1 4.1499999999999998e-01 8.7817125257034478e-01 3.0292623182420574e+01 1.6824015001262474e+01 -2 0 0
808 444 2 -8.2999999999999996e-01 2.4374637424538365e-01 2.9523710291418656e+01 1.8325262988004326e+01 -2 -5 0
809 444 1 4.1499999999999998e-01 7.5923845616337837e-01 2.8912937588178909e+01 1.8852004340606026e+01 -2 -5 0
3050 444 4 0.0000000000000000e+00 3.4729999999999999e+00 6.6205000000000003e-01 1.8169999999999999e+00 0 0 0
3074 444 4 0.0000000000000000e+00 3.4738799999999999e+00 2.4762200000000001e+00 3.5753400000000002e+00 0 0 0
3075 444 4 0.0000000000000000e+00 3.4729999999999999e+00 2.4790000000000001e+00 0.0000000000000000e+00 0 0 0
2955 444 1 4.1499999999999998e-01 2.9927922827906661e+00 2.3499864386234095e+00 6.9229021156692712e+00 -2 0 0
2953 444 2 -8.2999999999999996e-01 3.5578379487081717e+00 3.0934961290510188e+00 6.7127862891342849e+00 -2 0 0
2308 444 2 -8.2999999999999996e-01 2.4297337530654426e+00 9.5721230384131306e-01 7.2231201347658223e+00 1 -1 0
2309 444 1 4.1499999999999998e-01 2.7524841293118945e+00 1.4992671570991054e-01 6.8226778536185151e+00 1 -1 0
406 444 2 -8.2999999999999996e-01 2.9987018263172240e+00 1.5163395355730649e+00 1.4207543795656125e+01 1 3 0
407 444 1 4.1499999999999998e-01 2.2370488107489495e+00 2.0942960143326164e+00 1.4253185836912317e+01 1 3 0
2310 444 1 4.1499999999999998e-01 2.6731383979720422e+00 8.8142197247783227e-01 8.1457478142713899e+00 1 -1 0
2971 444 2 -8.2999999999999996e-01 2.5293849283873002e+00 1.2307836729043038e+00 9.8542590356131061e+00 -2 -3 0
408 444 1 4.1499999999999998e-01 3.5106283704606298e+00 1.8516396750006423e+00 1.3471515698108657e+01 1 3 0
2973 444 1 4.1499999999999998e-01 2.1499730660154026e+00 2.0982674870093270e+00 9.7137236684718058e+00 -2 -3 0
2240 444 1 4.1499999999999998e-01 3.4837231302535341e+00 2.1385892800820927e+00 1.1429864335741826e+01 2 1 0
621 444 1 4.1499999999999998e-01 2.4255068430643134e+00 3.2738426533773382e+00 1.9763803134925247e+01 5 -2 0
1614 444 1 4.1499999999999998e-01 2.2939017757314932e+00 1.9055008684021732e-01 1.7734154022656579e+01 -2 -1 0
37 444 2 -8.2999999999999996e-01 3.3725221943139627e+00 3.9944815515057908e+00 1.8658390417862957e+01 -4 -1 0
3064 444 4 0.0000000000000000e+00 3.4729999999999999e+00 6.1128000000000000e+00 0.0000000000000000e+00 0 0 0
3065 444 4 0.0000000000000000e+00 3.4735499999999999e+00 6.1125299999999996e+00 3.5709300000000002e+00 0 0 0
3068 444 4 0.0000000000000000e+00 3.4729999999999999e+00 4.2959500000000004e+00 1.8169999999999999e+00 0 0 0
3088 444 4 0.0000000000000000e+00 3.4729999999999999e+00 7.9297500000000003e+00 1.8169999999999999e+00 0 0 0
513 444 1 4.1499999999999998e-01 3.8899846770018738e+00 6.4255271870980799e+00 6.8807683530878858e+00 -3 0 0
512 444 1 4.1499999999999998e-01 3.9252846819432805e+00 4.9497270013621906e+00 6.5451158010675679e+00 -3 0 0
328 444 2 -8.2999999999999996e-01 3.8953586702831902e+00 6.5434990308859380e+00 1.0985937652491918e+01 1 -1 0
676 444 2 -8.2999999999999996e-01 3.9896621095474156e+00 4.8938244992557172e+00 1.3338243858616350e+01 3 0 0
2785 444 2 -8.2999999999999996e-01 2.1694449210882967e+00 7.7962802192934362e+00 9.3194885025611782e+00 -1 -1 0
2787 444 1 4.1499999999999998e-01 2.7896067590871025e+00 7.5128092443235186e+00 9.9912593426363721e+00 -1 -1 0
221 444 1 4.1499999999999998e-01 2.1527699377513243e+00 6.4142508982137834e+00 1.2297349968185804e+01 -1 -3 0
1559 444 1 4.1499999999999998e-01 3.7379327664470701e+00 4.6459028449072308e+00 1.4901061630774137e+01 -1 -4 0
330 444 1 4.1499999999999998e-01 4.0837279809090816e+00 5.7941632168126187e+00 1.0420920295005601e+01 1 -1 0
678 444 1 4.1499999999999998e-01 3.8318683458939553e+00 5.5676518426480293e+00 1.2676965330633742e+01 3 0 0
2169 444 1 4.1499999999999998e-01 3.4589130087765336e+00 4.1253199222584636e+00 9.0090068109846690e+00 2 -3 0
935 444 1 4.1499999999999998e-01 2.6573009479494161e+00 7.0643315995839986e+00 1.7070394654339832e+01 -2 1 0
39 444 1 4.1499999999999998e-01 3.2650583480368334e+00 4.9351409068208998e+00 1.8517524269496832e+01 -4 -1 0
934 444 2 -8.2999999999999996e-01 3.1873435562056609e+00 6.5120054866338295e+00 1.7645044616981753e+01 -2 1 0
936 444 1 4.1499999999999998e-01 3.6821707062701270e+00 7.1303296786869304e+00 1.8182681229866159e+01 -2 1 0
1560 444 1 4.1499999999999998e-01 3.6832773815562079e+00 4.9729202050471919e+00 1.6378210788456023e+01 -1 -4 0
3084 444 4 0.0000000000000000e+00 3.4729999999999999e+00 9.7467000000000006e+00 0.0000000000000000e+00 0 0 0
3085 444 4 0.0000000000000000e+00 3.4708899999999998e+00 9.7495600000000007e+00 3.5749200000000001e+00 0 0 0
3106 444 4 0.0000000000000000e+00 3.4729999999999999e+00 1.1563549999999999e+01 1.8169999999999999e+00 0 0 0
2428 444 2 -8.2999999999999996e-01 2.8311011923143306e+00 9.2928985222511695e+00 7.0008401305364094e+00 -4 -2 0
2549 444 1 4.1499999999999998e-01 3.7694060901393676e+00 1.0893506575270166e+01 6.4783269418270084e+00 5 -4 0
2429 444 1 4.1499999999999998e-01 3.2418487333420951e+00 8.9030359052420316e+00 7.7725429978338436e+00 -4 -2 0
1142 444 1 4.1499999999999998e-01 2.4676236519936032e+00 1.1325491195893404e+01 1.3878821641574726e+01 -2 -4 0
1143 444 1 4.1499999999999998e-01 3.0191195166360045e+00 9.9619263932769968e+00 1.3520437917736793e+01 -2 -4 0
1141 444 2 -8.2999999999999996e-01 2.2072730764284905e+00 1.0468600973215105e+01 1.3540903576938502e+01 -2 -4 0
3124 444 4 0.0000000000000000e+00 3.4729999999999999e+00 1.5197450000000000e+01 1.8169999999999999e+00 0 0 0
3130 444 4 0.0000000000000000e+00 3.4738799999999999e+00 1.3377720000000000e+01 3.5753400000000002e+00 0 0 0
3131 444 4 0.0000000000000000e+00 3.4729999999999999e+00 1.3380500000000000e+01 0.0000000000000000e+00 0 0 0
958 444 2 -8.2999999999999996e-01 2.2697046919176040e+00 1.3175405902065149e+01 7.4487921951737439e+00 0 3 0
2402 444 1 4.1499999999999998e-01 3.0720846157006694e+00 1.5901984109768799e+01 6.5060463067418617e+00 3 -4 0
2550 444 1 4.1499999999999998e-01 3.7413016513709003e+00 1.2372114930343589e+01 6.8020899815732605e+00 5 -4 0
2401 444 2 -8.2999999999999996e-01 2.1279866550756372e+00 1.5838527487547102e+01 6.3615297290943804e+00 3 -4 0
1907 444 1 4.1499999999999998e-01 3.1944614103272171e+00 1.2568281552243491e+01 1.1645626418990883e+01 1 2 0
1554 444 1 4.1499999999999998e-01 2.6485732088590614e+00 1.5508857769996460e+01 1.0033588261111525e+01 -2 -1 0
2920 444 2 -8.2999999999999996e-01 3.6152718097458227e+00 1.3494780817436286e+01 1.3492205672028504e+01 0 0 0
1908 444 1 4.1499999999999998e-01 3.1430754802148386e+00 1.3079502362779856e+01 1.0221580142167525e+01 1 2 0
1552 444 2 -8.2999999999999996e-01 2.3691687706167732e+00 1.4639815315397778e+01 9.7456105483938380e+00 -2 -1 0
2828 444 1 4.1499999999999998e-01 2.0926311241489541e+00 1.3809323778924364e+01 1.4222387184065216e+01 0 -2 0
1906 444 2 -8.2999999999999996e-01 3.3516402782120545e+00 1.2302146518798860e+01 1.0739702155646473e+01 1 2 0
2922 444 1 4.1499999999999998e-01 4.0141519746293142e+00 1.3387911616831088e+01 1.4355748289321758e+01 0 0 0
2921 444 1 4.1499999999999998e-01 4.0627581845376977e+00 1.4251270041543942e+01 1.3113112011395330e+01 0 0 0
1051 444 2 -8.2999999999999996e-01 2.1839717867685939e+00 1.3475792012660461e+01 1.8010464145651614e+01 0 2 0
1052 444 1 4.1499999999999998e-01 2.9186995786129697e+00 1.3128777578637123e+01 1.8516416983930412e+01 0 2 0
156 444 1 4.1499999999999998e-01 3.9941881333536338e+00 1.5762312563929859e+01 1.9936104950042864e+01 4 -7 0
3120 444 4 0.0000000000000000e+00 3.4729999999999999e+00 1.7014299999999999e+01 0.0000000000000000e+00 0 0 0
3121 444 4 0.0000000000000000e+00 3.4735499999999999e+00 1.7014030000000002e+01 3.5709300000000002e+00 0 0 0
3144 444 4 0.0000000000000000e+00 3.4729999999999999e+00 1.8831250000000001e+01 1.8169999999999999e+00 0 0 0
2345 444 1 4.1499999999999998e-01 3.2699077160725722e+00 1.9868595389356095e+01 6.6821936994921867e+00 1 3 0
2344 444 2 -8.2999999999999996e-01 2.4563594256274972e+00 1.9474602580213780e+01 6.9970618220025740e+00 1 3 0
2346 444 1 4.1499999999999998e-01 2.7399058781637953e+00 1.8793074259418812e+01 7.6064489434222127e+00 1 3 0
3038 444 11 3.5999999999999999e-01 3.6601924022794097e+00 1.7177454838395814e+01 8.6429319303223817e+00 1 0 0
1751 444 1 4.1499999999999998e-01 2.8702910023459074e+00 1.8048036600707437e+01 1.4514742565478301e+01 1 2 0
423 444 1 4.1499999999999998e-01 3.8419312422789260e+00 2.0182442578404707e+01 9.8209370141263328e+00 -1 3 0
3037 444 10 -7.8000000000000003e-01 3.0000771143798439e+00 1.7511687400670549e+01 9.2018550651712268e+00 1 0 0
3034 444 7 1.0800000000000001e+00 3.4279452998991800e+00 1.7587771013620753e+01 1.0410913699642730e+01 1 0 0
3036 444 9 -8.0000000000000004e-01 3.3762158898619581e+00 1.8642673841205873e+01 1.1001908576635611e+01 1 0 0
1752 444 1 4.1499999999999998e-01 3.0243786568235613e+00 1.9192260965778836e+01 1.5493978257886923e+01 1 2 0
3035 444 8 -8.5999999999999999e-01 3.7191907868617338e+00 1.6562484331963901e+01 1.0990962291712600e+01 1 0 0
656 444 1 4.1499999999999998e-01 3.3918739378045633e+00 1.7071566912460863e+01 1.2880826618829673e+01 1 -2 0
1750 444 2 -8.2999999999999996e-01 2.4195378992632217e+00 1.8822778788119585e+01 1.4850641356912552e+01 1 2 0
655 444 2 -8.2999999999999996e-01 3.9094090617887254e+00 1.7037166844069336e+01 1.3685317232318567e+01 1 -2 0
898 444 2 -8.2999999999999996e-01 3.6128218808110071e+00 1.9504316774193892e+01 1.6981598753063786e+01 -2 3 0
899 444 1 4.1499999999999998e-01 2.8861456008286499e+00 1.9240645520573242e+01 1.7546090336535137e+01 -2 3 0
3140 444 4 0.0000000000000000e+00 3.4729999999999999e+00 2.0648199999999999e+01 0.0000000000000000e+00 0 0 0
3141 444 4 0.0000000000000000e+00 3.4708899999999998e+00 2.0651060000000001e+01 3.5749200000000001e+00 0 0 0
3162 444 4 0.0000000000000000e+00 3.4729999999999999e+00 2.2465050000000002e+01 1.8169999999999999e+00 0 0 0
3186 444 4 0.0000000000000000e+00 3.4738799999999999e+00 2.4279219999999999e+01 3.5753400000000002e+00 0 0 0
3187 444 4 0.0000000000000000e+00 3.4729999999999999e+00 2.4282000000000000e+01 0.0000000000000000e+00 0 0 0
1357 444 2 -8.2999999999999996e-01 3.1731837191842951e+00 2.3905176145384914e+01 6.2368022303791957e+00 -2 0 0
1358 444 1 4.1499999999999998e-01 2.5476057942994466e+00 2.3180710764952106e+01 6.2309678241154298e+00 -2 0 0
422 444 1 4.1499999999999998e-01 3.1185156397102589e+00 2.1246816394216129e+01 9.0236457032935586e+00 -1 3 0
2952 444 1 4.1499999999999998e-01 3.3043309194277999e+00 2.2851503210985889e+01 1.1329692001835181e+01 2 0 0
421 444 2 -8.2999999999999996e-01 3.9948137385518256e+00 2.0944609881103705e+01 9.2624030383048073e+00 -1 3 0
2950 444 2 -8.2999999999999996e-01 3.6354438575305918e+00 2.3748030576799579e+01 1.1276447175361135e+01 2 0 0
1033 444 2 -8.2999999999999996e-01 3.8761424111048801e+00 2.4104609631677295e+01 1.5031947467518910e+01 1 -3 0
2951 444 1 4.1499999999999998e-01 2.8644782057624858e+00 2.4297403836164737e+01 1.1417987872496091e+01 2 0 0
1034 444 1 4.1499999999999998e-01 4.0500745193423295e+00 2.3163401990545442e+01 1.5042350830351952e+01 1 -3 0
1239 444 1 4.1499999999999998e-01 2.9022746409444897e+00 2.3962893157417763e+01 1.9716797608224393e+01 0 0 0
216 444 1 4.1499999999999998e-01 2.4874227361595298e+00 2.1286514061946299e+01 1.6446926505643585e+01 -2 3 0
1237 444 2 -8.2999999999999996e-01 2.2986771316596224e+00 2.3992409210095904e+01 1.8974483188809550e+01 0 0 0
3176 444 4 0.0000000000000000e+00 3.4729999999999999e+00 2.7915800000000001e+01 0.0000000000000000e+00 0 0 0
3177 444 4 0.0000000000000000e+00 3.4735499999999999e+00 2.7915530000000000e+01 3.5709300000000002e+00 0 0 0
3180 444 4 0.0000000000000000e+00 3.4729999999999999e+00 2.6098949999999999e+01 1.8169999999999999e+00 0 0 0
2334 444 1 4.1499999999999998e-01 2.5013482487827829e+00 2.8053908140500926e+01 7.6515161639364919e+00 0 0 0
1359 444 1 4.1499999999999998e-01 2.6303106129432972e+00 2.4691489521902533e+01 6.1799526659825279e+00 -2 0 0
2332 444 2 -8.2999999999999996e-01 2.9420276180680709e+00 2.8196035723396378e+01 6.8137612853309157e+00 0 0 0
2333 444 1 4.1499999999999998e-01 2.5295553351670077e+00 2.7571850903365245e+01 6.2166920731294164e+00 0 0 0
1758 444 1 4.1499999999999998e-01 2.1359011380958686e+00 2.4923658803096483e+01 1.4561919337940633e+01 0 1 0
1397 444 1 4.1499999999999998e-01 3.4442322799144156e+00 2.7292368189513930e+01 1.1356326654702384e+01 -1 3 0
1398 444 1 4.1499999999999998e-01 3.7753131060647789e+00 2.8508221983694117e+01 1.2195361837459780e+01 -1 3 0
2520 444 1 4.1499999999999998e-01 3.4942787838709508e+00 2.5139237731426380e+01 1.6865418861938654e+01 2 1 0
1238 444 1 4.1499999999999998e-01 2.6095109436860646e+00 2.4724123261584637e+01 1.8441370880323905e+01 0 0 0
2519 444 1 4.1499999999999998e-01 2.5500393613778316e+00 2.6314629505043154e+01 1.6728446245786014e+01 2 1 0
2518 444 2 -8.2999999999999996e-01 3.2064711029732029e+00 2.5935096465317145e+01 1.7312641691854658e+01 2 1 0
3196 444 4 0.0000000000000000e+00 3.4729999999999999e+00 3.1549700000000001e+01 0.0000000000000000e+00 0 0 0
3197 444 4 0.0000000000000000e+00 3.4708899999999998e+00 3.1552560000000000e+01 3.5749200000000001e+00 0 0 0
3200 444 4 0.0000000000000000e+00 3.4729999999999999e+00 2.9732749999999999e+01 1.8169999999999999e+00 0 0 0
947 444 1 4.1499999999999998e-01 2.8218079676693786e+00 2.9864083949372375e+01 6.6004857678687641e+00 4 3 0
946 444 2 -8.2999999999999996e-01 2.8748297165322594e+00 3.0801574761361227e+01 6.7863119063780850e+00 4 3 0
948 444 1 4.1499999999999998e-01 3.7858821476675488e+00 3.1031323067317075e+01 6.6034703294929642e+00 4 3 0
2707 444 2 -8.2999999999999996e-01 3.5574744590257592e+00 2.9683476460248496e+01 9.3335069946290847e+00 1 1 0
2210 444 1 4.1499999999999998e-01 2.4010198386397303e+00 2.9659888581345957e+01 1.4873609380600627e+01 -2 3 0
2709 444 1 4.1499999999999998e-01 2.9784128274221287e+00 2.9965660260924793e+01 8.6254872689836546e+00 1 1 0
2209 444 2 -8.2999999999999996e-01 3.0669288992691888e+00 2.9190108307133158e+01 1.4371510352529297e+01 -2 3 0
2211 444 1 4.1499999999999998e-01 3.5741639047301539e+00 2.9879018391294583e+01 1.3942153429084334e+01 -2 3 0
2474 444 1 4.1499999999999998e-01 2.3267311138723574e+00 2.9894881794653539e+01 1.0601146034560994e+01 -1 0 0
2685 444 1 4.1499999999999998e-01 3.5955167240420818e+00 3.2295953616714804e+01 1.3952240240379314e+01 2 -3 0
2708 444 1 4.1499999999999998e-01 3.8964619763564596e+00 3.0497798226182116e+01 9.7052609286968750e+00 1 1 0
971 444 1 4.1499999999999998e-01 2.4518933896633821e+00 3.1278645331270411e+01 1.9753762344350910e+01 3 2 0
1613 444 1 4.1499999999999998e-01 3.0151224107106254e+00 3.1730383077919637e+01 1.7089726801485568e+01 -2 -2 0