LAMMPS data file via write_data, version 11 Aug 2017, timestep = 1000000

3531 atoms
10 atom types
2024 bonds
5 bond types
1018 angles
5 angle types
12 dihedrals
4 dihedral types
9 impropers
1 improper types

0.0000000000000000e+00 3.2704500000000003e+01 xlo xhi
0.0000000000000000e+00 3.2704500000000003e+01 ylo yhi
0.0000000000000000e+00 8.0000000000000000e+01 zlo zhi

Masses

1 1.0079
2 15.9994
3 39.0983
4 63.546
5 12.011
6 12.011
7 15.9994
8 15.9994
9 15.9994
10 1.0079

Bond Coeffs # harmonic

1 450 0.9572
2 570 1.229
3 450 1.364
4 570 1.229
5 553 0.945

Angle Coeffs # harmonic

1 100 123.32
2 85 124
3 55 104.52
4 35 113
5 100 123.32

Dihedral Coeffs # charmm

1 0.922 1 180 0
2 3.741 2 0 0
3 0.922 1 0 0
4 3.741 2 180 0

Improper Coeffs # umbrella

1 21 0

Atoms # full

3049 444 4 0.0000000000000000e+00 1.6733100000000001e+00 6.6244999999999998e-01 3.5739600000000000e+00 0 0 0
3051 444 4 0.0000000000000000e+00 1.6560500000000000e+00 2.4790000000000001e+00 1.8169999999999999e+00 0 0 0
3060 444 4 0.0000000000000000e+00 1.6560500000000000e+00 6.6205000000000003e-01 0.0000000000000000e+00 0 0 0
321 444 1 4.1499999999999998e-01 1.5916528084858015e+00 1.5118322010588781e+00 7.6800167637054608e+00 0 2 0
320 444 1 4.1499999999999998e-01 8.8229231894597615e-01 1.8326137781839180e+00 6.3816323689646604e+00 0 2 0
319 444 2 -8.2999999999999996e-01 1.4629461079430661e+00 1.1892614416888896e+00 6.7880444826879769e+00 0 2 0
2624 444 1 4.1499999999999998e-01 6.6411040569144264e-01 3.9818348708145193e+00 6.9558445492406431e+00 -3 1 0
2383 444 2 -8.2999999999999996e-01 1.8087495210336222e+00 2.3839639448571601e+00 1.5593787754093594e+01 -2 -1 0
1426 444 2 -8.2999999999999996e-01 1.4357019398572559e+00 2.1266757318153395e+00 9.4842957309970046e+00 0 -2 0
1427 444 1 4.1499999999999998e-01 1.2477160583927112e+00 3.0527145438739276e+00 9.6370874332640781e+00 0 -2 0
2077 444 2 -8.2999999999999996e-01 1.0791568058089043e+00 2.9789055806496956e+00 1.3064600578514733e+01 -1 -4 0
2078 444 1 4.1499999999999998e-01 1.2349339153353565e+00 2.7756130226481472e+00 1.3986901379126367e+01 -1 -4 0
2079 444 1 4.1499999999999998e-01 1.4785341871727138e+00 3.8395124849399274e+00 1.2937771818813475e+01 -1 -4 0
1428 444 1 4.1499999999999998e-01 5.7558532397469409e-01 1.7070404739274923e+00 9.4659244733567842e+00 0 -2 0
2384 444 1 4.1499999999999998e-01 1.0163741613996251e+00 2.3771018365905974e+00 1.6130747849727573e+01 -2 -1 0
3066 444 4 0.0000000000000000e+00 1.6560500000000000e+00 4.2959500000000004e+00 0.0000000000000000e+00 0 0 0
3067 444 4 0.0000000000000000e+00 1.6849099999999999e+00 4.2826899999999997e+00 3.5755200000000000e+00 0 0 0
3069 444 4 0.0000000000000000e+00 1.6560500000000000e+00 6.1128000000000000e+00 1.8169999999999999e+00 0 0 0
3086 444 4 0.0000000000000000e+00 1.6560500000000000e+00 7.9297500000000003e+00 0.0000000000000000e+00 0 0 0
3087 444 4 0.0000000000000000e+00 1.6855700000000000e+00 7.9431799999999999e+00 3.5755599999999998e+00 0 0 0
2743 444 2 -8.2999999999999996e-01 1.3463547348736702e+00 7.7961289892770029e+00 6.7409131275230445e+00 1 3 0
2745 444 1 4.1499999999999998e-01 1.4947551739031557e+00 6.8797507945590333e+00 6.5075453215134278e+00 1 3 0
229 444 2 -8.2999999999999996e-01 1.8392161483750120e+00 5.1319775783817070e+00 7.4363951479533812e+00 1 -1 0
2373 444 1 4.1499999999999998e-01 1.6336423628080778e+00 6.7762391063810421e+00 1.1709272782457695e+01 0 0 0
230 444 1 4.1499999999999998e-01 1.4253544029668996e+00 5.2117122234259723e+00 8.2958093184736583e+00 1 -1 0
659 444 1 4.1499999999999998e-01 1.1049539339403878e+00 4.9428721744280244e+00 1.0488143816667915e+01 0 -2 0
2371 444 2 -8.2999999999999996e-01 1.9380807586829725e+00 5.8697256764391090e+00 1.1751492737945320e+01 0 0 0
658 444 2 -8.2999999999999996e-01 6.9001530850979909e-01 4.6391819426354060e+00 9.6807838854684469e+00 0 -2 0
1157 444 1 4.1499999999999998e-01 1.2555092294142485e+00 7.9027017427325283e+00 1.7405070804390824e+01 -2 -1 0
1156 444 2 -8.2999999999999996e-01 1.0573333755025363e+00 7.8825595196732783e+00 1.8341314611814859e+01 -2 -1 0
1158 444 1 4.1499999999999998e-01 1.8235513812620037e+00 7.4700010356702036e+00 1.8739984062963124e+01 -2 -1 0
3089 444 4 0.0000000000000000e+00 1.6560500000000000e+00 9.7467000000000006e+00 1.8169999999999999e+00 0 0 0
3104 444 4 0.0000000000000000e+00 1.6733100000000001e+00 1.1563950000000000e+01 3.5739600000000000e+00 0 0 0
3115 444 4 0.0000000000000000e+00 1.6560500000000000e+00 1.1563549999999999e+01 0.0000000000000000e+00 0 0 0
841 444 2 -8.2999999999999996e-01 9.0968117475684251e-01 1.0819908456427855e+01 7.6187025478468708e+00 3 -5 0
843 444 1 4.1499999999999998e-01 8.6609711925942590e-01 9.9326481920299816e+00 7.9752155274096239e+00 3 -5 0
842 444 1 4.1499999999999998e-01 1.7395196779496755e+00 1.0846656347663183e+01 7.1423786195270571e+00 3 -5 0
2621 444 1 4.1499999999999998e-01 1.1255695565072212e+00 9.5137853054459569e+00 1.5422310421084942e+01 1 1 0
2881 444 2 -8.2999999999999996e-01 6.6235192969551016e-01 8.3557270790100162e+00 1.1628588386610856e+01 2 -4 0
2620 444 2 -8.2999999999999996e-01 2.8150412026580640e-01 9.9033298091862019e+00 1.5650435352122210e+01 1 1 0
570 444 1 4.1499999999999998e-01 9.5123682894513595e-01 1.1202517591513629e+01 1.1834093636222246e+01 -4 3 0
2882 444 1 4.1499999999999998e-01 1.2364669478135866e+00 9.1046682693530805e+00 1.1468242133028550e+01 2 -4 0
2622 444 1 4.1499999999999998e-01 3.8479730082687874e-01 1.0833762916047149e+01 1.5450791428639072e+01 1 1 0
568 444 2 -8.2999999999999996e-01 1.7219032092437840e+00 1.0645037840130483e+01 1.1726752806643994e+01 -4 3 0
1205 444 1 4.1499999999999998e-01 6.8907739099780629e-01 1.2080100320105988e+01 8.5542550225975376e+00 -4 1 0
1957 444 2 -8.2999999999999996e-01 2.4512803078140266e-01 1.0153864358685453e+01 1.9575564600298030e+01 1 -2 0
1958 444 1 4.1499999999999998e-01 2.9474655939433192e-01 9.2993264612477873e+00 1.9147154202196131e+01 1 -2 0
3106 444 4 0.0000000000000000e+00 1.6560500000000000e+00 1.3380500000000000e+01 1.8169999999999999e+00 0 0 0
3121 444 4 0.0000000000000000e+00 1.6560500000000000e+00 1.5197450000000000e+01 0.0000000000000000e+00 0 0 0
3122 444 4 0.0000000000000000e+00 1.6849099999999999e+00 1.5184180000000000e+01 3.5755200000000000e+00 0 0 0
1087 444 2 -8.2999999999999996e-01 1.1208701130050915e+00 1.4698890726912650e+01 6.2715763060195631e+00 3 -2 0
1088 444 1 4.1499999999999998e-01 7.4523332916206642e-01 1.5579285763315871e+01 6.2773878497561801e+00 3 -2 0
1089 444 1 4.1499999999999998e-01 3.6985581571103660e-01 1.4118346956490646e+01 6.1483731166583420e+00 3 -2 0
2873 444 1 4.1499999999999998e-01 1.0199527243195530e+00 1.5376868855162442e+01 1.0835729165449138e+01 3 2 0
1204 444 2 -8.2999999999999996e-01 5.7378140012479051e-01 1.2927708666572183e+01 8.9837882490650181e+00 -4 1 0
2872 444 2 -8.2999999999999996e-01 2.0576652742055643e-01 1.5453363189910736e+01 1.0338252661854172e+01 3 2 0
1184 444 1 4.1499999999999998e-01 1.1320569322117358e+00 1.3006259525611480e+01 1.4599524806463855e+01 -2 -3 0
2775 444 1 4.1499999999999998e-01 7.5699305440006512e-02 1.4992402712608238e+01 1.4636665053663116e+01 0 0 0
1206 444 1 4.1499999999999998e-01 8.3874588824236929e-01 1.3568939339341533e+01 8.3243575274802346e+00 -4 1 0
1183 444 2 -8.2999999999999996e-01 3.3985637369067156e-01 1.2491430923447098e+01 1.4753153102637633e+01 -2 -3 0
907 444 2 -8.2999999999999996e-01 1.8316649405345102e+00 1.4535657408108001e+01 1.4867155456608492e+01 5 0 0
2874 444 1 4.1499999999999998e-01 1.6228646916793110e-01 1.4647385642369828e+01 9.8237217560253640e+00 3 2 0
2853 444 1 4.1499999999999998e-01 1.8842732845371819e+00 1.3928965033859665e+01 1.8244577487977686e+01 2 -2 0
2632 444 2 -8.2999999999999996e-01 1.2241731782741325e+00 1.3375951479749821e+01 1.9895629893252718e+01 2 -5 0
1652 444 1 4.1499999999999998e-01 1.2979099855383756e+00 1.5953083640332807e+01 1.7652015195213679e+01 2 1 0
3124 444 4 0.0000000000000000e+00 1.6560500000000000e+00 1.7014299999999999e+01 1.8169999999999999e+00 0 0 0
3141 444 4 0.0000000000000000e+00 1.6560500000000000e+00 1.8831250000000001e+01 0.0000000000000000e+00 0 0 0
3142 444 4 0.0000000000000000e+00 1.6855700000000000e+00 1.8844680000000000e+01 3.5755599999999998e+00 0 0 0
1168 444 2 -8.2999999999999996e-01 9.0190008317367532e-01 1.9669169987058023e+01 6.3167621718536209e+00 -2 -5 0
380 444 1 4.1499999999999998e-01 6.3825172606989611e-02 1.7149278810593160e+01 7.6774242931117875e+00 1 -1 0
626 444 1 4.1499999999999998e-01 1.3315019504185543e+00 2.0215922440110329e+01 9.3664119586820274e+00 3 -2 0
1750 444 2 -8.2999999999999996e-01 8.7292290498495595e-01 1.7842130207716959e+01 1.2728506481274897e+01 -5 3 0
910 444 2 -8.2999999999999996e-01 1.5762816193008677e+00 1.6945541701673744e+01 8.7960443882033790e+00 2 5 0
1751 444 1 4.1499999999999998e-01 8.2500895515858164e-01 1.7821944938776674e+01 1.1772719415033500e+01 -5 3 0
911 444 1 4.1499999999999998e-01 1.0195987350405209e+00 1.6375751244691575e+01 9.3267748908107322e+00 2 5 0
1651 444 2 -8.2999999999999996e-01 9.8571275042303363e-01 1.6813991519899218e+01 1.7373441159007985e+01 2 1 0
1653 444 1 4.1499999999999998e-01 1.7647559024793864e+00 1.7252725493764284e+01 1.7031627179749542e+01 2 1 0
3144 444 4 0.0000000000000000e+00 1.6560500000000000e+00 2.0648199999999999e+01 1.8169999999999999e+00 0 0 0
3159 444 4 0.0000000000000000e+00 1.6733100000000001e+00 2.2465450000000001e+01 3.5739600000000000e+00 0 0 0
3161 444 4 0.0000000000000000e+00 1.6560500000000000e+00 2.4282000000000000e+01 1.8169999999999999e+00 0 0 0
3170 444 4 0.0000000000000000e+00 1.6560500000000000e+00 2.2465050000000002e+01 0.0000000000000000e+00 0 0 0
628 444 2 -8.2999999999999996e-01 1.4186889566491154e+00 2.3006319005414213e+01 7.1691606274293580e+00 2 4 0
629 444 1 4.1499999999999998e-01 9.5837535804057516e-01 2.3447292071255212e+01 6.4550973622860068e+00 2 4 0
630 444 1 4.1499999999999998e-01 7.7761442397441649e-01 2.2965295034884541e+01 7.8787896564996682e+00 2 4 0
1170 444 1 4.1499999999999998e-01 1.3345272483986435e+00 2.0522875054528136e+01 6.3326754569951174e+00 -2 -5 0
2831 444 1 4.1499999999999998e-01 3.9196032325955504e-01 2.3506975550938549e+01 1.5845480555767500e+01 1 -3 0
2832 444 1 4.1499999999999998e-01 1.8476806911323997e+00 2.3179611305028512e+01 1.5589343787170304e+01 1 -3 0
1355 444 1 4.1499999999999998e-01 1.5661646809417042e+00 2.1733940948222724e+01 1.6972414715065646e+01 -5 -2 0
2470 444 2 -8.2999999999999996e-01 8.4717262141380534e-02 2.0542375118220889e+01 1.9042359086141424e+01 -1 2 0
2830 444 2 -8.2999999999999996e-01 1.0742272724762949e+00 2.2871310835790563e+01 1.6061522280342878e+01 1 -3 0
117 444 1 4.1499999999999998e-01 8.3305408410166470e-01 2.2051420141736262e+01 1.9959267736551251e+01 2 1 0
995 444 1 4.1499999999999998e-01 5.7425342206806410e-02 2.3172849873493252e+01 1.7746489252779607e+01 -4 3 0
1354 444 2 -8.2999999999999996e-01 1.9019183408478064e+00 2.0880111923724048e+01 1.7245320164874162e+01 -5 -2 0
2471 444 1 4.1499999999999998e-01 8.0064066649480570e-01 2.0523471045351783e+01 1.8407277840686284e+01 -1 2 0
3176 444 4 0.0000000000000000e+00 1.6560500000000000e+00 2.6098949999999999e+01 0.0000000000000000e+00 0 0 0
3177 444 4 0.0000000000000000e+00 1.6849099999999999e+00 2.6085680000000000e+01 3.5755200000000000e+00 0 0 0
3179 444 4 0.0000000000000000e+00 1.6560500000000000e+00 2.7915800000000001e+01 1.8169999999999999e+00 0 0 0
283 444 2 -8.2999999999999996e-01 1.9289250270761209e+00 2.6121972437070532e+01 6.9418057655732142e+00 -1 -2 0
284 444 1 4.1499999999999998e-01 1.0685860533419500e+00 2.5812524261010630e+01 6.6584487633491394e+00 -1 -2 0
1014 444 1 4.1499999999999998e-01 1.5575699969103258e+00 2.8016655305530133e+01 6.4559450484416345e+00 -1 1 0
2313 444 1 4.1499999999999998e-01 1.5327264541854344e+00 2.6704842192088872e+01 1.0635367565695161e+01 0 2 0
862 444 2 -8.2999999999999996e-01 6.1854399002683425e-01 2.8154995754958279e+01 1.3162682434601670e+01 4 4 0
2311 444 2 -8.2999999999999996e-01 1.3001312312063233e+00 2.6242127520358377e+01 1.1440368470021578e+01 0 2 0
2245 444 2 -8.2999999999999996e-01 1.9789470914281122e+00 2.8426629230331965e+01 1.5610534696017833e+01 -3 -3 0
2312 444 1 4.1499999999999998e-01 8.9625671228557990e-01 2.6910883105520501e+01 1.1993435539222963e+01 0 2 0
236 444 1 4.1499999999999998e-01 5.5153161681609941e-01 2.4869612710909212e+01 1.2531769083205143e+01 3 -2 0
864 444 1 4.1499999999999998e-01 1.0573400478405717e+00 2.8468136979163216e+01 1.3953651745871786e+01 4 4 0
2541 444 1 4.1499999999999998e-01 1.9869426687353955e+00 2.8067792569447903e+01 9.3458880146954222e+00 -5 3 0
2540 444 1 4.1499999999999998e-01 2.0193310028391021e+00 2.6923030801531766e+01 8.3557523314757258e+00 -5 3 0
203 444 1 4.1499999999999998e-01 1.3334734551917420e+00 2.7804236952309573e+01 1.8750370488648425e+01 4 2 0
2246 444 1 4.1499999999999998e-01 1.6014105090658588e+00 2.7925447582248978e+01 1.6333386636735604e+01 -3 -3 0
1654 444 2 -8.2999999999999996e-01 8.7939093709786176e-01 2.6371208299395086e+01 1.7792849810972857e+01 2 -7 0
202 444 2 -8.2999999999999996e-01 1.5176985620665997e+00 2.8597179416922526e+01 1.9253893291182070e+01 4 2 0
1656 444 1 4.1499999999999998e-01 1.3581104772983199e+00 2.5596350907149567e+01 1.8087222918238773e+01 2 -7 0
1655 444 1 4.1499999999999998e-01 6.5078255126771012e-02 2.6025652478542593e+01 1.7427175117372119e+01 2 -7 0
3196 444 4 0.0000000000000000e+00 1.6560500000000000e+00 2.9732749999999999e+01 0.0000000000000000e+00 0 0 0
3197 444 4 0.0000000000000000e+00 1.6855700000000000e+00 2.9746179999999999e+01 3.5755599999999998e+00 0 0 0
3199 444 4 0.0000000000000000e+00 1.6560500000000000e+00 3.1549700000000001e+01 1.8169999999999999e+00 0 0 0
1776 444 1 4.1499999999999998e-01 6.8303160138029684e-01 3.0580854754033595e+01 6.6221654227826754e+00 1 0 0
1775 444 1 4.1499999999999998e-01 8.3875494675661588e-01 3.2086585752162300e+01 6.6016826543578739e+00 1 0 0
1774 444 2 -8.2999999999999996e-01 1.9059735720326343e-01 3.1394329882307016e+01 6.7317034104913134e+00 1 0 0
1012 444 2 -8.2999999999999996e-01 1.4945988429849282e+00 2.8971375032390533e+01 6.4838148148472197e+00 -1 1 0
949 444 2 -8.2999999999999996e-01 1.8454377380165556e+00 2.9817879885681272e+01 1.0037724271211031e+01 3 1 0
863 444 1 4.1499999999999998e-01 4.3167889515136881e-01 2.8948883259757693e+01 1.2661627625610357e+01 4 4 0
2574 444 1 4.1499999999999998e-01 1.4292922676606163e+00 3.1608281202536723e+01 1.2314539621894097e+01 1 -2 0
951 444 1 4.1499999999999998e-01 1.6966225593031103e+00 3.0092402918382824e+01 1.0942557941122484e+01 3 1 0
2949 444 1 4.1499999999999998e-01 3.6369702308830368e-02 2.9043035841138781e+01 9.4524568297403437e+00 -6 0 0
2247 444 1 4.1499999999999998e-01 2.0180843481051167e+00 2.9325739373054507e+01 1.5936573138769644e+01 -3 -3 0
1734 444 1 4.1499999999999998e-01 1.5107150542060295e+00 2.9760001665115464e+01 1.7914994113211666e+01 -1 1 0
1732 444 2 -8.2999999999999996e-01 1.5204242208326597e+00 3.0430435611047614e+01 1.7231871928118203e+01 -1 1 0
1733 444 1 4.1499999999999998e-01 6.1287542608640655e-01 3.0729600627773188e+01 1.7176308094686846e+01 -1 1 0
3050 444 4 0.0000000000000000e+00 3.4729999999999999e+00 6.6205000000000003e-01 1.8169999999999999e+00 0 0 0
3074 444 4 0.0000000000000000e+00 3.4728200000000000e+00 2.4623900000000001e+00 3.5737199999999998e+00 0 0 0
3075 444 4 0.0000000000000000e+00 3.4729999999999999e+00 2.4790000000000001e+00 0.0000000000000000e+00 0 0 0
118 444 2 -8.2999999999999996e-01 3.9298872922749726e+00 3.3173747276566217e+00 6.5197425591110392e+00 -1 -4 0
119 444 1 4.1499999999999998e-01 3.0218676360249237e+00 3.6013188624775809e+00 6.6251364733852016e+00 -1 -4 0
612 444 1 4.1499999999999998e-01 3.5057398842337895e+00 9.2460787028506686e-02 1.0468976998558629e+01 1 3 0
610 444 2 -8.2999999999999996e-01 3.3724976274750769e+00 9.0801731480727554e-01 1.0952035908933768e+01 1 3 0
417 444 1 4.1499999999999998e-01 3.3674914688769397e+00 3.0233328116716223e+00 1.5030320231051398e+01 3 1 0
611 444 1 4.1499999999999998e-01 2.7682039357334403e+00 1.4131523415695695e+00 1.0408069373693897e+01 1 3 0
2385 444 1 4.1499999999999998e-01 2.1334187219038303e+00 1.4843875360091954e+00 1.5633588075941390e+01 -2 -1 0
2357 444 1 4.1499999999999998e-01 3.0855543170375301e+00 3.7250490504926304e+00 1.8060214927028397e+01 2 1 0
3064 444 4 0.0000000000000000e+00 3.4729999999999999e+00 6.1128000000000000e+00 0.0000000000000000e+00 0 0 0
3065 444 4 0.0000000000000000e+00 3.4735000000000000e+00 6.1126600000000000e+00 3.5822600000000002e+00 0 0 0
3068 444 4 0.0000000000000000e+00 3.4729999999999999e+00 4.2959500000000004e+00 1.8169999999999999e+00 0 0 0
3088 444 4 0.0000000000000000e+00 3.4729999999999999e+00 7.9297500000000003e+00 1.8169999999999999e+00 0 0 0
231 444 1 4.1499999999999998e-01 2.6744200379008589e+00 5.5903794670376481e+00 7.5287751792575737e+00 1 -1 0
973 444 2 -8.2999999999999996e-01 4.0862700807417163e+00 6.3723885898722985e+00 7.6342416723411519e+00 4 0 0
2372 444 1 4.1499999999999998e-01 2.8869387396602870e+00 5.9298159547463731e+00 1.1640634432070652e+01 0 0 0
2356 444 2 -8.2999999999999996e-01 3.7695832291841769e+00 4.3475852772411177e+00 1.7813668415594940e+01 2 1 0
2871 444 1 4.1499999999999998e-01 3.5979657066793926e+00 5.9018158367966400e+00 1.8604126757813173e+01 1 0 0
2869 444 2 -8.2999999999999996e-01 3.4541584510321295e+00 6.8160706104084605e+00 1.8848441176454415e+01 1 0 0
2358 444 1 4.1499999999999998e-01 3.5618329044375909e+00 4.5871790821039546e+00 1.6910525481199521e+01 2 1 0
3084 444 4 0.0000000000000000e+00 3.4729999999999999e+00 9.7467000000000006e+00 0.0000000000000000e+00 0 0 0
3085 444 4 0.0000000000000000e+00 3.4729899999999998e+00 9.7640499999999992e+00 3.5738699999999999e+00 0 0 0
3105 444 4 0.0000000000000000e+00 3.4729999999999999e+00 1.1563549999999999e+01 1.8169999999999999e+00 0 0 0
1162 444 2 -8.2999999999999996e-01 3.4392783662342437e+00 1.0777646600398418e+01 6.5981507805219337e+00 0 5 0
1164 444 1 4.1499999999999998e-01 3.3932211483716230e+00 1.1725179005048570e+01 6.7257944198159034e+00 0 5 0
2744 444 1 4.1499999999999998e-01 2.1917402142777531e+00 8.2207991730244618e+00 6.5952743248738654e+00 1 3 0
569 444 1 4.1499999999999998e-01 2.3879090172669648e+00 1.1224816932740442e+01 1.1357259186169847e+01 -4 3 0
410 444 1 4.1499999999999998e-01 3.4407048043760589e+00 9.2601589665626580e+00 1.4282440327253484e+01 0 -2 0
411 444 1 4.1499999999999998e-01 2.5782257792428993e+00 1.0503979426435993e+01 1.4313029872009443e+01 0 -2 0
409 444 2 -8.2999999999999996e-01 2.8906737473358524e+00 9.7857884816793508e+00 1.4863311493561184e+01 0 -2 0
2494 444 2 -8.2999999999999996e-01 3.9080901813051532e+00 9.5779436401876659e+00 1.7525603735691995e+01 5 1 0
2495 444 1 4.1499999999999998e-01 3.4268956051841553e+00 9.7454574696376763e+00 1.6715280777397041e+01 5 1 0
2496 444 1 4.1499999999999998e-01 3.5500088961926557e+00 8.7520310721662256e+00 1.7850993182534729e+01 5 1 0
3123 444 4 0.0000000000000000e+00 3.4729999999999999e+00 1.5197450000000000e+01 1.8169999999999999e+00 0 0 0
3129 444 4 0.0000000000000000e+00 3.4728200000000000e+00 1.3363890000000000e+01 3.5737199999999998e+00 0 0 0
3130 444 4 0.0000000000000000e+00 3.4729999999999999e+00 1.3380500000000000e+01 0.0000000000000000e+00 0 0 0
2652 444 1 4.1499999999999998e-01 2.5880353431420366e+00 1.3850064793779318e+01 6.3657277997418609e+00 0 0 0
2651 444 1 4.1499999999999998e-01 4.0332180438346930e+00 1.4254414111390345e+01 6.5653368393701275e+00 0 0 0
2650 444 2 -8.2999999999999996e-01 3.4160532693284993e+00 1.3542597856355961e+01 6.7346211308025072e+00 0 0 0
431 444 1 4.1499999999999998e-01 3.8532482405296973e+00 1.2414338720418135e+01 1.0098263069502437e+01 0 -2 0
1874 444 1 4.1499999999999998e-01 3.0522170606940318e+00 1.4580193239414323e+01 1.2101467688571741e+01 1 -3 0
430 444 2 -8.2999999999999996e-01 3.1403849793325946e+00 1.2693119059042170e+01 1.0673014629456617e+01 0 -2 0
1875 444 1 4.1499999999999998e-01 2.3227483407741705e+00 1.5801837368115478e+01 1.2618532704251598e+01 1 -3 0
1873 444 2 -8.2999999999999996e-01 2.4542760446775378e+00 1.5276362108153329e+01 1.1829350575007265e+01 1 -3 0
908 444 1 4.1499999999999998e-01 2.2736592560007405e+00 1.5317538411214016e+01 1.4536193318941141e+01 5 0 0
432 444 1 4.1499999999999998e-01 2.4552712415998492e+00 1.2994928349161672e+01 1.0076556630559635e+01 0 -2 0
1592 444 1 4.1499999999999998e-01 3.9908592450109541e+00 1.3164229037209859e+01 1.1946291315026475e+01 -3 1 0
909 444 1 4.1499999999999998e-01 2.2033340361997364e+00 1.4400746230948231e+01 1.5738874549520583e+01 5 0 0
2851 444 2 -8.2999999999999996e-01 2.2405901619442634e+00 1.4421764725473430e+01 1.7505375609971928e+01 2 -2 0
2852 444 1 4.1499999999999998e-01 3.1556129665558506e+00 1.4145914540901746e+01 1.7451782532552301e+01 2 -2 0
3119 444 4 0.0000000000000000e+00 3.4729999999999999e+00 1.7014299999999999e+01 0.0000000000000000e+00 0 0 0
3120 444 4 0.0000000000000000e+00 3.4735000000000000e+00 1.7014160000000000e+01 3.5822600000000002e+00 0 0 0
3143 444 4 0.0000000000000000e+00 3.4729999999999999e+00 1.8831250000000001e+01 1.8169999999999999e+00 0 0 0
4 444 2 -8.2999999999999996e-01 2.8412059018559490e+00 1.7740242177455002e+01 6.6399916314390071e+00 -3 4 0
855 444 1 4.1499999999999998e-01 4.0732342088605211e+00 1.6359601234586194e+01 6.3306769234974922e+00 -4 1 0
6 444 1 4.1499999999999998e-01 2.1976328485710064e+00 1.8431423803621392e+01 6.4840636273051295e+00 -3 4 0
5 444 1 4.1499999999999998e-01 2.6929556950898741e+00 1.7474595986287731e+01 7.5475630262589330e+00 -3 4 0
772 444 2 -8.2999999999999996e-01 2.9740719037057488e+00 1.6832881797837601e+01 1.3986295794534655e+01 0 0 0
773 444 1 4.1499999999999998e-01 3.2363741297032447e+00 1.7389421806576561e+01 1.4719571068554027e+01 0 0 0
627 444 1 4.1499999999999998e-01 2.6125663060908861e+00 1.9876160200626980e+01 1.0098075071587612e+01 3 -2 0
774 444 1 4.1499999999999998e-01 2.2366677642220725e+00 1.7294168966932052e+01 1.3586694519901126e+01 0 0 0
912 444 1 4.1499999999999998e-01 2.4689615502850182e+00 1.6721547825014849e+01 9.0590674255944190e+00 2 5 0
1927 444 2 -8.2999999999999996e-01 3.5379086310499446e+00 1.7907371467887334e+01 1.6421132712443423e+01 3 4 0
766 444 2 -8.2999999999999996e-01 3.4502497543133490e+00 1.8632815793787032e+01 1.9325380932078847e+01 0 -1 0
768 444 1 4.1499999999999998e-01 3.7066245099661432e+00 1.7718772986199870e+01 1.9447975998427907e+01 0 -1 0
767 444 1 4.1499999999999998e-01 3.0358453148528799e+00 1.8652201243108390e+01 1.8462754130509200e+01 0 -1 0
1928 444 1 4.1499999999999998e-01 3.9813658864486405e+00 1.8702280153247965e+01 1.6124992530647667e+01 3 4 0
3139 444 4 0.0000000000000000e+00 3.4729999999999999e+00 2.0648199999999999e+01 0.0000000000000000e+00 0 0 0
3140 444 4 0.0000000000000000e+00 3.4729899999999998e+00 2.0665550000000000e+01 3.5738699999999999e+00 0 0 0
3160 444 4 0.0000000000000000e+00 3.4729999999999999e+00 2.2465050000000002e+01 1.8169999999999999e+00 0 0 0
3184 444 4 0.0000000000000000e+00 3.4728200000000000e+00 2.4265390000000000e+01 3.5737199999999998e+00 0 0 0
3185 444 4 0.0000000000000000e+00 3.4729999999999999e+00 2.4282000000000000e+01 0.0000000000000000e+00 0 0 0
1396 444 2 -8.2999999999999996e-01 3.3231082035499493e+00 2.1305390676553440e+01 7.0635382968523803e+00 1 0 0
2576 444 1 4.1499999999999998e-01 3.3201606362101064e+00 2.3929519972998385e+01 6.8543227213148379e+00 -6 5 0
2575 444 2 -8.2999999999999996e-01 3.8892024611887743e+00 2.4438568979067515e+01 6.2770079468269886e+00 -6 5 0
1397 444 1 4.1499999999999998e-01 2.9218836466678551e+00 2.0832449220799592e+01 7.7926316348316691e+00 1 0 0
1398 444 1 4.1499999999999998e-01 2.7365484955925088e+00 2.2045128401458022e+01 6.9055266981039205e+00 1 0 0
2148 444 1 4.1499999999999998e-01 2.2735871936725847e+00 2.4385592515915572e+01 9.2027402608864275e+00 6 0 0
1505 444 1 4.1499999999999998e-01 3.8274122146636484e+00 2.3112738442105822e+01 1.0350695338263620e+01 0 1 0
2710 444 2 -8.2999999999999996e-01 2.9813234104370974e+00 2.4086606170380431e+01 1.4774375058115773e+01 3 2 0
2711 444 1 4.1499999999999998e-01 3.5067089295264213e+00 2.3768712870913724e+01 1.4040109591730879e+01 3 2 0
1506 444 1 4.1499999999999998e-01 3.4021218878124380e+00 2.1679204132191153e+01 1.0114046426724780e+01 0 1 0
625 444 2 -8.2999999999999996e-01 2.2588235586265988e+00 2.0447826219052491e+01 9.4166824598718026e+00 3 -2 0
2720 444 1 4.1499999999999998e-01 3.3867897441764980e+00 2.4342651849454786e+01 1.8926879439386443e+01 3 -1 0
2719 444 2 -8.2999999999999996e-01 2.8754520800509815e+00 2.4113755088289807e+01 1.9703006575252285e+01 3 -1 0
2928 444 1 4.1499999999999998e-01 3.6770082912460205e+00 2.4293992347627672e+01 1.6495386196828640e+01 -1 0 0
1356 444 1 4.1499999999999998e-01 2.5504854800908294e+00 2.0653115387638806e+01 1.6578938065891474e+01 -5 -2 0
3174 444 4 0.0000000000000000e+00 3.4729999999999999e+00 2.7915800000000001e+01 0.0000000000000000e+00 0 0 0
3175 444 4 0.0000000000000000e+00 3.4735000000000000e+00 2.7915659999999999e+01 3.5822600000000002e+00 0 0 0
3178 444 4 0.0000000000000000e+00 3.4729999999999999e+00 2.6098949999999999e+01 1.8169999999999999e+00 0 0 0
285 444 1 4.1499999999999998e-01 2.5507609056203533e+00 2.5594923257606936e+01 6.4400369288275883e+00 -1 -2 0
2712 444 1 4.1499999999999998e-01 3.1807756413189687e+00 2.5021413718721913e+01 1.4825223132109659e+01 3 2 0
2683 444 2 -8.2999999999999996e-01 3.8695460909741457e+00 2.6523902934636045e+01 1.5016943126940824e+01 8 -2 0
2685 444 1 4.1499999999999998e-01 3.3081804677426669e+00 2.7294230863289968e+01 1.5104674336137093e+01 8 -2 0
1467 444 1 4.1499999999999998e-01 3.6341169493239018e+00 2.6421657755100345e+01 1.1759661853015997e+01 4 2 0
1466 444 1 4.1499999999999998e-01 4.0673129438982221e+00 2.6320995560378950e+01 1.3206763719595706e+01 4 2 0
2539 444 2 -8.2999999999999996e-01 2.1162448322413736e+00 2.7121183942057758e+01 9.2871903298720397e+00 -5 3 0
2147 444 1 4.1499999999999998e-01 3.0207352617008696e+00 2.5538942059450605e+01 9.8379172957270846e+00 6 0 0
2146 444 2 -8.2999999999999996e-01 3.0303446890079351e+00 2.4585499420511113e+01 9.7537282500074092e+00 6 0 0
2926 444 2 -8.2999999999999996e-01 3.9020104215895999e+00 2.4613218684009546e+01 1.7369285736462992e+01 -1 0 0
3194 444 4 0.0000000000000000e+00 3.4729999999999999e+00 3.1549700000000001e+01 0.0000000000000000e+00 0 0 0
3195 444 4 0.0000000000000000e+00 3.4729899999999998e+00 3.1567049999999998e+01 3.5738699999999999e+00 0 0 0
3198 444 4 0.0000000000000000e+00 3.4729999999999999e+00 2.9732749999999999e+01 1.8169999999999999e+00 0 0 0
1013 444 1 4.1499999999999998e-01 2.3971342902657344e+00 2.9268109294846944e+01 6.6004784417309175e+00 -1 1 0
403 444 2 -8.2999999999999996e-01 3.4876709820138112e+00 3.1987687013265258e+01 6.9314228049845639e+00 -2 -4 0
405 444 1 4.1499999999999998e-01 2.8340403750705594e+00 3.2680247734537119e+01 6.8346832357698899e+00 -2 -4 0
950 444 1 4.1499999999999998e-01 2.5770577473909380e+00 3.0358616604722197e+01 9.7401190296811375e+00 3 1 0
2572 444 2 -8.2999999999999996e-01 2.3831386373795818e+00 3.1564777192087675e+01 1.2381746846993327e+01 1 -2 0
582 444 1 4.1499999999999998e-01 3.8987860915297960e+00 3.1623945568067953e+01 8.6849496575730392e+00 0 -3 0
2573 444 1 4.1499999999999998e-01 2.6812273946891860e+00 3.2440554060216535e+01 1.2136001674652832e+01 1 -2 0
292 444 2 -8.2999999999999996e-01 2.9995632515293829e+00 3.2436704351796877e+01 1.6410694457368333e+01 -2 -6 0
293 444 1 4.1499999999999998e-01 3.7935224616627945e+00 3.2236865016877012e+01 1.6906602561809603e+01 -2 -6 0
294 444 1 4.1499999999999998e-01 2.3926279497832281e+00 3.1731311385535545e+01 1.6634931284295348e+01 -2 -6 0
3054 444 4 0.0000000000000000e+00 5.2898399999999999e+00 6.6205000000000003e-01 0.0000000000000000e+00 0 0 0
3055 444 4 0.0000000000000000e+00 5.2720000000000002e+00 6.6256000000000004e-01 3.5739000000000001e+00 0 0 0
3057 444 4 0.0000000000000000e+00 5.2898399999999999e+00 2.4790000000000001e+00 1.8169999999999999e+00 0 0 0
1439 444 1 4.1499999999999998e-01 4.7204104949535441e+00 1.7943736053403079e+00 6.4180794282166813e+00 -2 5 0
1438 444 2 -8.2999999999999996e-01 5.4239889419764484e+00 1.1560838780443954e+00 6.5355335094242024e+00 -2 5 0
120 444 1 4.1499999999999998e-01 4.2775547200101043e+00 3.2892931245177222e+00 7.4111295136915700e+00 -1 -4 0
2533 444 2 -8.2999999999999996e-01 5.0009745118236149e+00 3.1307610359069744e+00 8.7339028585280900e+00 4 -1 0
2534 444 1 4.1499999999999998e-01 4.6323946558639202e+00 3.3307838139051293e+00 9.5943513755179257e+00 4 -1 0
2152 444 2 -8.2999999999999996e-01 6.0368214048223221e+00 1.3652267045206863e+00 1.1656791578507470e+01 -5 1 0
416 444 1 4.1499999999999998e-01 4.7585745551167484e+00 2.7940216522511485e+00 1.5581862982400173e+01 3 1 0
2756 444 1 4.1499999999999998e-01 6.0533267815516041e+00 3.5432122226427172e+00 1.1863068005720883e+01 -1 2 0
2535 444 1 4.1499999999999998e-01 5.9046654926348534e+00 2.8718087178802523e+00 8.9142308178815419e+00 4 -1 0
2203 444 2 -8.2999999999999996e-01 5.8627222763217643e+00 1.4885465990614186e+00 1.5654598844276219e+01 1 -5 0
2153 444 1 4.1499999999999998e-01 5.0978666678973807e+00 1.4879180100946710e+00 1.1516993116288315e+01 -5 1 0
415 444 2 -8.2999999999999996e-01 4.1359837109914990e+00 3.4872427637123589e+00 1.5362643968116162e+01 3 1 0
2154 444 1 4.1499999999999998e-01 6.0969849731439076e+00 9.1086493323517681e-01 1.2497129879880681e+01 -5 1 0
807 444 1 4.1499999999999998e-01 5.6099854407589609e+00 3.6206907261819374e+00 1.8473416716667238e+01 1 1 0
2204 444 1 4.1499999999999998e-01 5.5145972038202835e+00 8.5941342407537558e-01 1.6286447109700365e+01 1 -5 0
3076 444 4 0.0000000000000000e+00 5.2898399999999999e+00 4.2959500000000004e+00 0.0000000000000000e+00 0 0 0
3077 444 4 0.0000000000000000e+00 5.2898399999999999e+00 6.1128000000000000e+00 1.8169999999999999e+00 0 0 0