LAMMPS data file via write_data, version 11 Aug 2017, timestep = 1000000

3558 atoms
13 atom types
2024 bonds
5 bond types
1018 angles
5 angle types
12 dihedrals
4 dihedral types
9 impropers
1 improper types

0.0000000000000000e+00 3.2704500000000003e+01 xlo xhi
0.0000000000000000e+00 3.2704500000000003e+01 ylo yhi
0.0000000000000000e+00 8.0000000000000000e+01 zlo zhi

Masses

1 1.0079
2 15.9994
3 39.0983
4 63.546
5 12.011
6 15.9994
7 1.0079
8 1.0079
9 12.011
10 15.9994
11 15.9994
12 15.9994
13 1.0079

Bond Coeffs # harmonic

1 450 0.9572
2 570 1.229
3 450 1.364
4 570 1.229
5 553 0.945

Angle Coeffs # harmonic

1 100 123.32
2 85 124
3 55 104.52
4 35 113
5 100 123.32

Dihedral Coeffs # charmm

1 0.922 1 180 0
2 3.741 2 0 0
3 0.922 1 0 0
4 3.741 2 180 0

Improper Coeffs # umbrella

1 21 0

Atoms # full

3049 444 4 0.0000000000000000e+00 1.6618500000000000e+00 6.8201000000000001e-01 3.5978500000000002e+00 0 0 0
3051 444 4 0.0000000000000000e+00 1.6560500000000000e+00 2.4790000000000001e+00 1.8169999999999999e+00 0 0 0
3060 444 4 0.0000000000000000e+00 1.6560500000000000e+00 6.6205000000000003e-01 0.0000000000000000e+00 0 0 0
2511 444 1 4.1499999999999998e-01 1.5323241865875370e+00 2.7769386190250636e+00 6.5758271043555316e+00 5 -3 0
247 444 2 -8.2999999999999996e-01 1.9813971450855088e+00 1.6970445867599734e-01 7.0528810660134669e+00 -3 1 0
2077 444 2 -8.2999999999999996e-01 6.3258378039557617e-01 3.1271037329324511e+00 1.1560131808553818e+01 -2 3 0
1260 444 1 4.1499999999999998e-01 6.4954750402075279e-01 2.0170014895302475e+00 1.5435725436306823e+01 -1 2 0
1258 444 2 -8.2999999999999996e-01 1.2465217205442347e+00 1.3200351057991557e+00 1.5163526912867415e+01 -1 2 0
1732 444 2 -8.2999999999999996e-01 6.4385547457874781e-02 3.8300081698013821e+00 1.5846216972016904e+01 -3 -1 0
2079 444 1 4.1499999999999998e-01 1.4011693481479799e+00 2.7645725268895709e+00 1.1119586840002784e+01 -2 3 0
2078 444 1 4.1499999999999998e-01 9.9013399807767144e-01 3.7508029342068503e+00 1.2192104752627710e+01 -2 3 0
1678 444 2 -8.2999999999999996e-01 4.4321853392066907e-01 3.6996033808461664e+00 1.9434235409125044e+01 2 3 0
3066 444 4 0.0000000000000000e+00 1.6560500000000000e+00 4.2959500000000004e+00 0.0000000000000000e+00 0 0 0
3067 444 4 0.0000000000000000e+00 1.6863200000000000e+00 4.2596100000000003e+00 3.5860599999999998e+00 0 0 0
3069 444 4 0.0000000000000000e+00 1.6560500000000000e+00 6.1128000000000000e+00 1.8169999999999999e+00 0 0 0
3086 444 4 0.0000000000000000e+00 1.6560500000000000e+00 7.9297500000000003e+00 0.0000000000000000e+00 0 0 0
3087 444 4 0.0000000000000000e+00 1.6948099999999999e+00 7.9609699999999997e+00 3.5793100000000000e+00 0 0 0
88 444 2 -8.2999999999999996e-01 1.8459630808636236e+00 5.3511670506326681e+00 6.1589526530130501e+00 2 -1 0
90 444 1 4.1499999999999998e-01 9.0997580657665089e-01 5.1622558695007550e+00 6.2258270157482203e+00 2 -1 0
2924 444 1 4.1499999999999998e-01 7.3419701431658346e-01 7.6474261448387608e+00 7.1409484419203029e+00 2 -2 0
89 444 1 4.1499999999999998e-01 1.9309163201043569e+00 6.2543585735192426e+00 6.4643373302867557e+00 2 -1 0
2923 444 2 -8.2999999999999996e-01 1.5906282539842846e+00 7.9475755471978680e+00 6.8365333335141045e+00 2 -2 0
224 444 1 4.1499999999999998e-01 1.1916697436521853e+00 4.7775922040894603e+00 9.3781415898141294e+00 1 2 0
223 444 2 -8.2999999999999996e-01 3.0049976507111531e-01 5.1115724351119898e+00 9.4806399429621031e+00 1 2 0
1734 444 1 4.1499999999999998e-01 7.4238881276323232e-01 4.4968525772850390e+00 1.5737299187688702e+01 -3 -1 0
2248 444 2 -8.2999999999999996e-01 2.0176178053536176e+00 5.4866628894275635e+00 1.6203432516637022e+01 0 5 0
1093 444 2 -8.2999999999999996e-01 8.2942474161632296e-01 7.5458427794691154e+00 1.9387336046034164e+01 5 1 0
2808 444 1 4.1499999999999998e-01 4.0632289109166991e-01 6.3628767698994197e+00 1.6461083795250097e+01 -1 2 0
1095 444 1 4.1499999999999998e-01 3.2003802653468150e-01 7.3116863252179005e+00 1.8611495538808086e+01 5 1 0
1094 444 1 4.1499999999999998e-01 1.6757664215759782e+00 7.8299039923921425e+00 1.9042014135122059e+01 5 1 0
3089 444 4 0.0000000000000000e+00 1.6560500000000000e+00 9.7467000000000006e+00 1.8169999999999999e+00 0 0 0
3107 444 4 0.0000000000000000e+00 1.6618500000000000e+00 1.1583510000000000e+01 3.5978500000000002e+00 0 0 0
3118 444 4 0.0000000000000000e+00 1.6560500000000000e+00 1.1563549999999999e+01 0.0000000000000000e+00 0 0 0
2638 444 2 -8.2999999999999996e-01 1.1930240537859058e+00 1.0902889304263693e+01 6.8491744747905781e+00 5 4 0
2639 444 1 4.1499999999999998e-01 9.0740389150982126e-01 1.1003964883775820e+01 7.7571597613755650e+00 5 4 0
2640 444 1 4.1499999999999998e-01 3.8931026123436696e-01 1.0715570641853825e+01 6.3642120178956070e+00 5 4 0
2925 444 1 4.1499999999999998e-01 1.4889838942022078e+00 8.8931929701324126e+00 6.7283261353582038e+00 2 -2 0
1212 444 1 4.1499999999999998e-01 1.8514420593890435e-01 9.1654514619828618e+00 1.2288471595745271e+01 -1 -1 0
2291 444 1 4.1499999999999998e-01 7.3972260053903616e-01 9.5527972771298231e+00 1.4190217642898441e+01 2 0 0
2290 444 2 -8.2999999999999996e-01 1.0544475250431085e+00 9.6355544943287654e+00 1.5090401689228473e+01 2 0 0
2980 444 2 -8.2999999999999996e-01 6.6668288073693949e-01 1.1022756272823072e+01 9.4981154124599687e+00 0 -2 0
2292 444 1 4.1499999999999998e-01 4.7871947244250362e-01 1.0289521506154367e+01 1.5486755326906838e+01 2 0 0
2982 444 1 4.1499999999999998e-01 1.2304529566737756e+00 1.0729623763266030e+01 1.0213984442235940e+01 0 -2 0
2981 444 1 4.1499999999999998e-01 7.0466288804258148e-01 1.1978345013472220e+01 9.5386065938697921e+00 0 -2 0
1798 444 2 -8.2999999999999996e-01 3.7299440056238209e-01 1.0916044217926684e+01 1.9774197002175171e+01 2 1 0
1799 444 1 4.1499999999999998e-01 7.5413840045805824e-01 1.1794084612384443e+01 1.9776787277524289e+01 2 1 0
3109 444 4 0.0000000000000000e+00 1.6560500000000000e+00 1.3380500000000000e+01 1.8169999999999999e+00 0 0 0
3124 444 4 0.0000000000000000e+00 1.6560500000000000e+00 1.5197450000000000e+01 0.0000000000000000e+00 0 0 0
3125 444 4 0.0000000000000000e+00 1.6863200000000000e+00 1.5161110000000001e+01 3.5860599999999998e+00 0 0 0
1971 444 1 4.1499999999999998e-01 9.2830080263493009e-01 1.4787805094418466e+01 6.9468044494004184e+00 -1 0 0
1969 444 2 -8.2999999999999996e-01 3.7443085433461304e-01 1.4029310669582635e+01 7.1315931396422041e+00 -1 0 0
282 444 1 4.1499999999999998e-01 8.0853770836202454e-01 1.3106240710339884e+01 1.3661013222591983e+01 4 2 0
280 444 2 -8.2999999999999996e-01 1.6557031366999395e+00 1.3238406514148188e+01 1.4086542041086171e+01 4 2 0
2453 444 1 4.1499999999999998e-01 4.7478962368156263e-01 1.4465102546934597e+01 1.0268382368340788e+01 6 4 0
2966 444 1 4.1499999999999998e-01 7.1984763583308764e-01 1.3651748921600900e+01 1.5763718695086743e+01 1 1 0
2452 444 2 -8.2999999999999996e-01 8.4699354895810353e-01 1.3727873707923978e+01 9.7844508421466845e+00 6 4 0
2454 444 1 4.1499999999999998e-01 1.7504700164309848e+00 1.3989218062437562e+01 9.6065148556413007e+00 6 4 0
1970 444 1 4.1499999999999998e-01 3.7592357092687689e-01 1.3957912392028568e+01 8.0861257616573425e+00 -1 0 0
2353 444 2 -8.2999999999999996e-01 1.9603796843319308e+00 1.3103856239592696e+01 1.9225191515496324e+01 6 -6 0
2355 444 1 4.1499999999999998e-01 1.8192147301079384e+00 1.4006584837028964e+01 1.9510472667303791e+01 6 -6 0
2965 444 2 -8.2999999999999996e-01 2.3308831268371585e-01 1.3578518552327269e+01 1.6584654141980657e+01 1 1 0
2354 444 1 4.1499999999999998e-01 1.8452414455832296e+00 1.3131554404056137e+01 1.8275345327797702e+01 6 -6 0
694 444 2 -8.2999999999999996e-01 9.0297447890792992e-01 1.5579145749893312e+01 1.9795586773356352e+01 4 -2 0
2793 444 1 4.1499999999999998e-01 2.1188546198366687e-01 1.5328393789322869e+01 1.6778743529438451e+01 -3 5 0
696 444 1 4.1499999999999998e-01 1.1227729158296895e+00 1.6285270678493223e+01 1.9187879343626779e+01 4 -2 0
3127 444 4 0.0000000000000000e+00 1.6560500000000000e+00 1.7014299999999999e+01 1.8169999999999999e+00 0 0 0
3144 444 4 0.0000000000000000e+00 1.6560500000000000e+00 1.8831250000000001e+01 0.0000000000000000e+00 0 0 0
3145 444 4 0.0000000000000000e+00 1.6948099999999999e+00 1.8862469999999998e+01 3.5793100000000000e+00 0 0 0
264 444 1 4.1499999999999998e-01 7.2345559250529734e-01 1.8145226382098450e+01 7.0419357797422268e+00 -1 0 0
262 444 2 -8.2999999999999996e-01 1.5786363089768480e+00 1.8483778193447296e+01 6.7768309635807995e+00 -1 0 0
263 444 1 4.1499999999999998e-01 1.8474157869355357e+00 1.9049918934519734e+01 7.5003462700207795e+00 -1 0 0
84 444 1 4.1499999999999998e-01 6.1870628577139619e-01 1.7437741079897947e+01 9.9578297492555787e+00 -2 5 0
2085 444 1 4.1499999999999998e-01 1.6791736411714184e+00 1.7859443513404873e+01 1.1667358855255914e+01 0 -1 0
2084 444 1 4.1499999999999998e-01 1.1982305023053965e+00 1.8024128422326232e+01 1.3093356081807704e+01 0 -1 0
2343 444 1 4.1499999999999998e-01 8.9155089760267392e-01 1.9739475956224947e+01 1.5170642874713044e+01 3 -5 0
2341 444 2 -8.2999999999999996e-01 4.8349410224666056e-01 1.9153650573512291e+01 1.4533045736823761e+01 3 -5 0
1654 444 2 -8.2999999999999996e-01 1.4582393873179542e+00 1.8950088475770432e+01 1.0074150598622220e+01 -1 -1 0
1854 444 1 4.1499999999999998e-01 1.0596587053189539e+00 2.0151668758820971e+01 1.3177860556355025e+01 -4 1 0
82 444 2 -8.2999999999999996e-01 1.9795237753954426e-01 1.6625592985457388e+01 9.6756696310220907e+00 -2 5 0
2083 444 2 -8.2999999999999996e-01 1.8508882367593071e+00 1.7567425912039020e+01 1.2562608467674897e+01 0 -1 0
1656 444 1 4.1499999999999998e-01 1.2791812566518765e+00 1.9542919809953897e+01 1.0804028825968343e+01 -1 -1 0
2792 444 1 4.1499999999999998e-01 7.0190462289843170e-01 1.6544897393060129e+01 1.6022505594961217e+01 -3 5 0
1111 444 2 -8.2999999999999996e-01 1.9820527634978742e+00 2.0079280048284225e+01 1.9212108209681837e+01 3 1 0
3147 444 4 0.0000000000000000e+00 1.6560500000000000e+00 2.0648199999999999e+01 1.8169999999999999e+00 0 0 0
3165 444 4 0.0000000000000000e+00 1.6618500000000000e+00 2.2485009999999999e+01 3.5978500000000002e+00 0 0 0
3167 444 4 0.0000000000000000e+00 1.6560500000000000e+00 2.4282000000000000e+01 1.8169999999999999e+00 0 0 0
3176 444 4 0.0000000000000000e+00 1.6560500000000000e+00 2.2465050000000002e+01 0.0000000000000000e+00 0 0 0
2430 444 1 4.1499999999999998e-01 1.7521427010904291e+00 2.2620440816709618e+01 6.2956114183236975e+00 1 0 0
2429 444 1 4.1499999999999998e-01 1.7841281119429560e+00 2.1110932475455137e+01 6.4063226832298286e+00 1 0 0
2428 444 2 -8.2999999999999996e-01 1.1925576619458760e+00 2.1861508275645921e+01 6.4602900921693180e+00 1 0 0
2082 444 1 4.1499999999999998e-01 1.8531189899857021e+00 2.2095508481951004e+01 1.5456918475262990e+01 -1 -1 0
1853 444 1 4.1499999999999998e-01 1.3121670955705771e+00 2.1356721556276469e+01 1.2296961728257896e+01 -4 1 0
1852 444 2 -8.2999999999999996e-01 9.5323042697459537e-01 2.0469506578134709e+01 1.2281264276979012e+01 -4 1 0
662 444 1 4.1499999999999998e-01 9.3096184956462835e-01 2.4178768692582700e+01 1.0320595980906312e+01 2 3 0
572 444 1 4.1499999999999998e-01 6.8990939887014024e-01 2.4248414887727151e+01 1.5112267857358171e+01 3 -2 0
663 444 1 4.1499999999999998e-01 1.9546657188622218e+00 2.3621124465624202e+01 1.1286493891561836e+01 2 3 0
2080 444 2 -8.2999999999999996e-01 1.8989486285843071e+00 2.1209277616890766e+01 1.5815704663801380e+01 -1 -1 0
571 444 2 -8.2999999999999996e-01 1.4244787852592882e+00 2.3851570235051472e+01 1.5580406693813252e+01 3 -2 0
661 444 2 -8.2999999999999996e-01 1.8601796364908532e+00 2.4220840874440452e+01 1.0546463558471151e+01 2 3 0
2081 444 1 4.1499999999999998e-01 1.6691078921952605e+00 2.1312059575070435e+01 1.6739198855295083e+01 -1 -1 0
1113 444 1 4.1499999999999998e-01 1.2326080711834504e+00 2.0566866698394040e+01 1.9553903155863999e+01 3 1 0
3182 444 4 0.0000000000000000e+00 1.6560500000000000e+00 2.6098949999999999e+01 0.0000000000000000e+00 0 0 0
3183 444 4 0.0000000000000000e+00 1.6863200000000000e+00 2.6062609999999999e+01 3.5860599999999998e+00 0 0 0
3185 444 4 0.0000000000000000e+00 1.6560500000000000e+00 2.7915800000000001e+01 1.8169999999999999e+00 0 0 0
3001 444 2 -8.2999999999999996e-01 1.0513909491521349e+00 2.6172563488123942e+01 7.1302480453123351e+00 3 -1 0
3003 444 1 4.1499999999999998e-01 9.6985463838126196e-01 2.7044893860833806e+01 6.7447304452021912e+00 3 -1 0
3002 444 1 4.1499999999999998e-01 8.2912259738582994e-01 2.6296267437711819e+01 8.0530302683521580e+00 3 -1 0
2197 444 2 -8.2999999999999996e-01 4.0274455927683150e-01 2.6760199597498431e+01 9.7598216560415167e+00 -1 -3 0
2201 444 1 4.1499999999999998e-01 9.2766263154999018e-01 2.6365402353418300e+01 1.2923303159373653e+01 -1 0 0
2198 444 1 4.1499999999999998e-01 2.0290718880105588e-01 2.7679298355070337e+01 9.9374591246432438e+00 -1 -3 0
2202 444 1 4.1499999999999998e-01 1.4141896249663544e+00 2.6859314477483849e+01 1.1577480662643808e+01 -1 0 0
2200 444 2 -8.2999999999999996e-01 1.5406975344066880e+00 2.6979165343725651e+01 1.2518684145394696e+01 -1 0 0
1949 444 1 4.1499999999999998e-01 2.0417678356976281e+00 2.6983131897695756e+01 1.6819122342976296e+01 -1 2 0
2437 444 2 -8.2999999999999996e-01 1.1229077371408331e+00 2.8474635686296093e+01 1.6360612344419138e+01 4 3 0
2438 444 1 4.1499999999999998e-01 3.6846073063723872e-01 2.7955143222076192e+01 1.6082818531096390e+01 4 3 0
573 444 1 4.1499999999999998e-01 1.7633002777134266e+00 2.4554235885093959e+01 1.6135107330990547e+01 3 -2 0
3202 444 4 0.0000000000000000e+00 1.6560500000000000e+00 2.9732749999999999e+01 0.0000000000000000e+00 0 0 0
3203 444 4 0.0000000000000000e+00 1.6948099999999999e+00 2.9763970000000000e+01 3.5793100000000000e+00 0 0 0
3205 444 4 0.0000000000000000e+00 1.6560500000000000e+00 3.1549700000000001e+01 1.8169999999999999e+00 0 0 0
1216 444 2 -8.2999999999999996e-01 1.0821893742657837e-01 3.1126344659386309e+01 6.4111999095273351e+00 -3 0 0
1218 444 1 4.1499999999999998e-01 4.1456332571549392e-01 3.0247372433293116e+01 6.6343429132066554e+00 -3 0 0
1217 444 1 4.1499999999999998e-01 8.7026761016677656e-01 3.1688613783436654e+01 6.5503657013041110e+00 -3 0 0
1687 444 2 -8.2999999999999996e-01 1.7614748671515832e+00 2.9140819900028518e+01 7.0971369183505173e+00 1 2 0
1688 444 1 4.1499999999999998e-01 1.8938925211654356e+00 2.9432801000153646e+01 7.9990485831852514e+00 1 2 0
2243 444 1 4.1499999999999998e-01 1.1119441317520136e+00 3.2369294055365422e+01 1.3893737194269420e+01 1 3 0
654 444 1 4.1499999999999998e-01 2.5424348972073063e-01 3.1999116611830466e+01 9.2309649165750560e+00 4 -3 0
1318 444 2 -8.2999999999999996e-01 1.7917884773606128e+00 3.1978847520224097e+01 9.9737331182844127e+00 2 1 0
2244 444 1 4.1499999999999998e-01 5.5712015046641006e-01 3.1536505882120323e+01 1.5029751959198293e+01 1 3 0
2242 444 2 -8.2999999999999996e-01 6.2925209038544050e-01 3.1562974191816416e+01 1.4075640363387569e+01 1 3 0
1532 444 1 4.1499999999999998e-01 1.9052817905131441e+00 2.9228264133034429e+01 1.0500603726931098e+01 3 0 0
1319 444 1 4.1499999999999998e-01 2.0185490163719759e+00 3.2319204115302625e+01 1.0839163535966874e+01 2 1 0
2410 444 2 -8.2999999999999996e-01 5.1758642814300937e-01 3.1111502824488340e+01 1.6646621118593373e+01 0 2 0
1807 444 2 -8.2999999999999996e-01 1.3811426597558885e+00 3.0705688429650408e+01 1.9479344413437392e+01 -3 6 0
2411 444 1 4.1499999999999998e-01 1.1421248967244499e+00 3.1836888226823589e+01 1.6646137533217697e+01 0 2 0
2439 444 1 4.1499999999999998e-01 8.1476836177951151e-01 2.9380385178868163e+01 1.6330589874938312e+01 4 3 0
1808 444 1 4.1499999999999998e-01 1.7470737482382304e+00 3.1005102721168875e+01 1.8647072010227863e+01 -3 6 0
1080 444 1 4.1499999999999998e-01 7.0658534066335849e-02 2.9287660233465925e+01 1.9553969691940043e+01 2 1 0
3050 444 4 0.0000000000000000e+00 3.4729999999999999e+00 6.6205000000000003e-01 1.8169999999999999e+00 0 0 0
3074 444 4 0.0000000000000000e+00 3.4825499999999998e+00 2.4664999999999999e+00 3.5945900000000002e+00 0 0 0
3075 444 4 0.0000000000000000e+00 3.4729999999999999e+00 2.4790000000000001e+00 0.0000000000000000e+00 0 0 0
2509 444 2 -8.2999999999999996e-01 2.4582230156685680e+00 2.7751163882051775e+00 6.3330517136612583e+00 5 -3 0
2510 444 1 4.1499999999999998e-01 2.6313086927843812e+00 3.6698439097175237e+00 6.0402448617994198e+00 5 -3 0
249 444 1 4.1499999999999998e-01 2.0808156578543278e+00 1.0009666223326674e+00 6.5888218188625434e+00 -3 1 0
2776 444 2 -8.2999999999999996e-01 3.2752878325517480e+00 2.0508858097599600e+00 1.0439498241294334e+01 2 -1 0
1259 444 1 4.1499999999999998e-01 2.0964861255960487e+00 1.5796043449988919e+00 1.5519077812254295e+01 -1 2 0
1635 444 1 4.1499999999999998e-01 2.6786998471773988e+00 7.7489925790710346e-01 1.3303152555729945e+01 2 -1 0
1633 444 2 -8.2999999999999996e-01 2.7228954989082981e+00 2.5885817515244458e-01 1.2498180173972962e+01 2 -1 0
1634 444 1 4.1499999999999998e-01 3.0314698501391621e+00 8.7560597148704467e-01 1.1834375175519448e+01 2 -1 0
2778 444 1 4.1499999999999998e-01 3.1771578355824901e+00 2.9018986909394555e+00 1.0012439173492124e+01 2 -1 0
303 444 1 4.1499999999999998e-01 3.3944058495632734e+00 2.8647251343471863e-01 1.7716921830331483e+01 3 0 0
530 444 1 4.1499999999999998e-01 3.3785864370173400e+00 2.5424165474702214e+00 1.7820528156982281e+01 2 0 0
535 444 2 -8.2999999999999996e-01 3.1160942079061122e+00 3.6087349844765675e+00 1.9109994870549176e+01 4 0 0
536 444 1 4.1499999999999998e-01 2.2034696562799545e+00 3.6746668359170567e+00 1.9391068408786115e+01 4 0 0
494 444 1 4.1499999999999998e-01 3.9490252355508741e+00 1.6578506397916195e+00 1.9749201654857259e+01 2 1 0
529 444 2 -8.2999999999999996e-01 3.6453840695587871e+00 1.8322126466024016e+00 1.7236866309642771e+01 2 0 0
3064 444 4 0.0000000000000000e+00 3.4729999999999999e+00 6.1128000000000000e+00 0.0000000000000000e+00 0 0 0
3065 444 4 0.0000000000000000e+00 3.4683099999999998e+00 6.1124599999999996e+00 3.5891000000000002e+00 0 0 0
3068 444 4 0.0000000000000000e+00 3.4729999999999999e+00 4.2959500000000004e+00 1.8169999999999999e+00 0 0 0
3088 444 4 0.0000000000000000e+00 3.4729999999999999e+00 7.9297500000000003e+00 1.8169999999999999e+00 0 0 0
2895 444 1 4.1499999999999998e-01 3.3952099269919995e+00 8.0090276771611073e+00 6.5971297198630507e+00 -2 -2 0
1380 444 1 4.1499999999999998e-01 3.6050145775437552e+00 5.1979573609522767e+00 6.4198103510216544e+00 -2 1 0
991 444 2 -8.2999999999999996e-01 3.1605228105848298e+00 7.8795908664003216e+00 1.3714534458793748e+01 0 -2 0
2562 444 1 4.1499999999999998e-01 2.5103743865638926e+00 6.2323884520842734e+00 1.2695312280070716e+01 2 -2 0
656 444 1 4.1499999999999998e-01 3.3686177160997288e+00 5.2520941268275898e+00 9.5130772454149088e+00 2 -1 0
1835 444 1 4.1499999999999998e-01 3.1679007785422293e+00 7.5176261650334490e+00 9.9062638847388040e+00 3 5 0
1834 444 2 -8.2999999999999996e-01 3.8368344997037114e+00 6.9169682442853713e+00 9.5776761472222027e+00 3 5 0
2560 444 2 -8.2999999999999996e-01 2.4010897955282986e+00 5.2987987323595185e+00 1.2876141593789091e+01 2 -2 0
655 444 2 -8.2999999999999996e-01 3.0162949006612423e+00 4.4382255835279656e+00 9.1529126767168858e+00 2 -1 0
657 444 1 4.1499999999999998e-01 3.0416626969298362e+00 4.5647206938646514e+00 8.2044469023136806e+00 2 -1 0
2561 444 1 4.1499999999999998e-01 2.9944915164425967e+00 5.1247989010395054e+00 1.3606778755310497e+01 2 -2 0
2250 444 1 4.1499999999999998e-01 2.8130233946768537e+00 5.2253658846678643e+00 1.5739443685070871e+01 0 5 0
992 444 1 4.1499999999999998e-01 4.0614487081292125e+00 7.8081377482238219e+00 1.4029906860166097e+01 0 -2 0
537 444 1 4.1499999999999998e-01 3.3648535281532030e+00 4.5064460530144181e+00 1.8889842963242714e+01 4 0 0
2149 444 2 -8.2999999999999996e-01 3.6443240204710614e+00 6.0625877173037885e+00 1.8200576276100271e+01 -1 1 0
2150 444 1 4.1499999999999998e-01 3.4077865674475749e+00 6.7795708330417526e+00 1.7612174097888058e+01 -1 1 0
2249 444 1 4.1499999999999998e-01 2.2655907767442245e+00 5.4790145917077773e+00 1.7127923019822926e+01 0 5 0
3084 444 4 0.0000000000000000e+00 3.4729999999999999e+00 9.7467000000000006e+00 0.0000000000000000e+00 0 0 0
3085 444 4 0.0000000000000000e+00 3.4815800000000001e+00 9.7726400000000009e+00 3.5995100000000000e+00 0 0 0
3108 444 4 0.0000000000000000e+00 3.4729999999999999e+00 1.1563549999999999e+01 1.8169999999999999e+00 0 0 0
449 444 1 4.1499999999999998e-01 3.4059739251321988e+00 1.0943798098785313e+01 6.8085649778198327e+00 2 5 0
1358 444 1 4.1499999999999998e-01 2.4960105330639339e+00 8.3690060871147782e+00 1.2224462494746858e+01 1 -4 0
1015 444 2 -8.2999999999999996e-01 2.9055189181316612e+00 1.1688013537641075e+01 1.1283810837964687e+01 0 -2 0
1271 444 1 4.1499999999999998e-01 3.9146663959628101e+00 1.0975117444661985e+01 1.3003357620072133e+01 1 6 0
1359 444 1 4.1499999999999998e-01 2.5903577383786525e+00 9.6141821392731703e+00 1.1368582631699605e+01 1 -4 0
1016 444 1 4.1499999999999998e-01 3.3191221074917201e+00 1.1850791277603536e+01 1.0436068024457818e+01 0 -2 0
993 444 1 4.1499999999999998e-01 2.7472227047174091e+00 8.5059632973064030e+00 1.4308734261311690e+01 0 -2 0
1357 444 2 -8.2999999999999996e-01 2.1003658651761912e+00 8.7976407582654783e+00 1.1465535982112598e+01 1 -4 0
26 444 1 4.1499999999999998e-01 2.1210729618367572e+00 8.8686144534415838e+00 1.6637251176375003e+01 -2 1 0
25 444 2 -8.2999999999999996e-01 2.8093182905912308e+00 8.5040216718296655e+00 1.7193688884592252e+01 -2 1 0
27 444 1 4.1499999999999998e-01 3.4344634981178164e+00 9.2206210723364688e+00 1.7302827732675549e+01 -2 1 0
1070 444 1 4.1499999999999998e-01 3.4769102204105566e+00 1.2071902554503721e+01 1.9863110530955439e+01 0 -3 0
3126 444 4 0.0000000000000000e+00 3.4729999999999999e+00 1.5197450000000000e+01 1.8169999999999999e+00 0 0 0
3132 444 4 0.0000000000000000e+00 3.4825499999999998e+00 1.3368000000000000e+01 3.5945900000000002e+00 0 0 0
3133 444 4 0.0000000000000000e+00 3.4729999999999999e+00 1.3380500000000000e+01 0.0000000000000000e+00 0 0 0
1880 444 1 4.1499999999999998e-01 3.2312919801300177e+00 1.6076825898183980e+01 6.9393382323510497e+00 3 0 0
2569 444 2 -8.2999999999999996e-01 3.0146362788520067e+00 1.3479450902571289e+01 6.4261103227547105e+00 1 -2 0
2570 444 1 4.1499999999999998e-01 2.9387393018287216e+00 1.4428702691320636e+01 6.5230296709978477e+00 1 -2 0
1879 444 2 -8.2999999999999996e-01 2.3046275614298795e+00 1.6049921966248682e+01 6.7010084908606968e+00 3 0 0
2571 444 1 4.1499999999999998e-01 2.1132813031381450e+00 1.3160646936352014e+01 6.4725425867504747e+00 1 -2 0
1446 444 1 4.1499999999999998e-01 2.6262648036147596e+00 1.5963009269248699e+01 1.2587576416846998e+01 1 -3 0
1444 444 2 -8.2999999999999996e-01 2.9178825131865618e+00 1.5052879481441883e+01 1.2641006269306232e+01 1 -3 0
1445 444 1 4.1499999999999998e-01 3.0371696469130631e+00 1.4785206911736680e+01 1.1729768740831139e+01 1 -3 0
689 444 1 4.1499999999999998e-01 3.7587126299055953e+00 1.5687390237823568e+01 1.0061093216418085e+01 0 0 0
1696 444 2 -8.2999999999999996e-01 3.6148663292774401e+00 1.2701560402625548e+01 1.5940968211121298e+01 1 -1 0
1017 444 1 4.1499999999999998e-01 2.5362532065919026e+00 1.2534024797968900e+01 1.1537069136027901e+01 0 -2 0
281 444 1 4.1499999999999998e-01 2.0576386610303907e+00 1.3959576655186982e+01 1.3602193714736964e+01 4 2 0
1922 444 1 4.1499999999999998e-01 3.9070806389381452e+00 1.4935589561168085e+01 1.4100979959455064e+01 0 0 0
688 444 2 -8.2999999999999996e-01 3.4176523966867567e+00 1.4800135835092325e+01 9.9484460235675432e+00 0 0 0
1697 444 1 4.1499999999999998e-01 2.8179708387478777e+00 1.2789570190426327e+01 1.5418048622392737e+01 1 -1 0
1698 444 1 4.1499999999999998e-01 4.0380435671799217e+00 1.3557933718156814e+01 1.5879497965304447e+01 1 -1 0
2890 444 2 -8.2999999999999996e-01 3.0319535508127302e+00 1.6273527012117448e+01 1.7405960449685654e+01 -1 -1 0
2891 444 1 4.1499999999999998e-01 3.4182680546843653e+00 1.6262725752692589e+01 1.6530245569336564e+01 -1 -1 0
3122 444 4 0.0000000000000000e+00 3.4729999999999999e+00 1.7014299999999999e+01 0.0000000000000000e+00 0 0 0
3123 444 4 0.0000000000000000e+00 3.4683099999999998e+00 1.7013960000000001e+01 3.5891000000000002e+00 0 0 0
3146 444 4 0.0000000000000000e+00 3.4729999999999999e+00 1.8831250000000001e+01 1.8169999999999999e+00 0 0 0
2153 444 1 4.1499999999999998e-01 4.0830770319012348e+00 1.8783984872228395e+01 6.4146218612607937e+00 0 2 0
1881 444 1 4.1499999999999998e-01 2.0441509344946738e+00 1.6969363485712201e+01 6.6461353937350589e+00 3 0 0
1221 444 1 4.1499999999999998e-01 4.0086961390288227e+00 1.8070227393985483e+01 1.3725849121846396e+01 -4 3 0
1655 444 1 4.1499999999999998e-01 2.2850781941676663e+00 1.9263548683019714e+01 9.7076622008889366e+00 -1 -1 0
1516 444 2 -8.2999999999999996e-01 3.3570732652334074e+00 1.9791959128682223e+01 8.5552284959732141e+00 -1 0 0
935 444 1 4.1499999999999998e-01 3.0385478104594634e+00 1.9109638687578737e+01 1.7851394418633284e+01 0 -2 0
934 444 2 -8.2999999999999996e-01 3.8791768600986343e+00 1.8825221573689124e+01 1.7492670824404058e+01 0 -2 0
2892 444 1 4.1499999999999998e-01 3.2772695010955024e+00 1.7125838432742210e+01 1.7765984637817045e+01 -1 -1 0
3142 444 4 0.0000000000000000e+00 3.4729999999999999e+00 2.0648199999999999e+01 0.0000000000000000e+00 0 0 0
3143 444 4 0.0000000000000000e+00 3.4815800000000001e+00 2.0674140000000001e+01 3.5995100000000000e+00 0 0 0
3166 444 4 0.0000000000000000e+00 3.4729999999999999e+00 2.2465050000000002e+01 1.8169999999999999e+00 0 0 0
3190 444 4 0.0000000000000000e+00 3.4825499999999998e+00 2.4269500000000001e+01 3.5945900000000002e+00 0 0 0
3191 444 4 0.0000000000000000e+00 3.4729999999999999e+00 2.4282000000000000e+01 0.0000000000000000e+00 0 0 0
455 444 1 4.1499999999999998e-01 3.7328692861128014e+00 2.2444142337275348e+01 6.8529334424884958e+00 -2 1 0
730 444 2 -8.2999999999999996e-01 2.8426634338779277e+00 2.4109255311201508e+01 6.5362873024346317e+00 -1 6 0
1517 444 1 4.1499999999999998e-01 3.6150169914012977e+00 2.0503251392393558e+01 7.9689178670521219e+00 -1 0 0
818 444 1 4.1499999999999998e-01 3.6086518389448923e+00 2.3367568474061450e+01 1.2710811705702595e+01 5 2 0
817 444 2 -8.2999999999999996e-01 2.7123987957627747e+00 2.3053681327964384e+01 1.2830968795968120e+01 5 2 0
819 444 1 4.1499999999999998e-01 2.5221360250402358e+00 2.3218618142583097e+01 1.3754455633899294e+01 5 2 0
1112 444 1 4.1499999999999998e-01 2.6324689370284298e+00 2.0751153117637678e+01 1.9007713452537946e+01 3 1 0
331 444 2 -8.2999999999999996e-01 3.5057528562396834e+00 2.2190125182378463e+01 1.8444435298125693e+01 -4 4 0
332 444 1 4.1499999999999998e-01 3.9188996667366509e+00 2.2555455811908892e+01 1.9226787751840153e+01 -4 4 0
333 444 1 4.1499999999999998e-01 3.9172488285348095e+00 2.2655498729413939e+01 1.7716197174209942e+01 -4 4 0
3180 444 4 0.0000000000000000e+00 3.4729999999999999e+00 2.7915800000000001e+01 0.0000000000000000e+00 0 0 0
3181 444 4 0.0000000000000000e+00 3.4683099999999998e+00 2.7915459999999999e+01 3.5891000000000002e+00 0 0 0
3184 444 4 0.0000000000000000e+00 3.4729999999999999e+00 2.6098949999999999e+01 1.8169999999999999e+00 0 0 0
1022 444 2 -8.2999999999999996e-01 4.0555801652023842e+00 2.8247355507758364e+01 6.4804521729159061e+00 -1 0 0
731 444 1 4.1499999999999998e-01 2.0549466251255359e+00 2.4622825850069454e+01 6.7151150136086741e+00 -1 6 0
732 444 1 4.1499999999999998e-01 3.5627656181967473e+00 2.4732117627316004e+01 6.6349138014198630e+00 -1 6 0
1026 444 1 4.1499999999999998e-01 4.0545830794378031e+00 2.7997871803513220e+01 7.4045672747744344e+00 -1 0 0
879 444 1 4.1499999999999998e-01 3.2771459128805156e+00 2.4954609532116056e+01 9.9290352544202634e+00 -3 -4 0
300 444 1 4.1499999999999998e-01 3.0956931598346356e+00 2.6705580746530394e+01 1.2839567494111432e+01 1 2 0
298 444 2 -8.2999999999999996e-01 4.0306936652860328e+00 2.6502559955661649e+01 1.2811487861512283e+01 1 2 0
1661 444 1 4.1499999999999998e-01 4.0250708202973478e+00 2.8372337151829580e+01 9.4007420630458611e+00 1 4 0
1948 444 2 -8.2999999999999996e-01 2.3607297517427166e+00 2.6080874735093619e+01 1.6839789814867718e+01 -1 2 0
1950 444 1 4.1499999999999998e-01 2.6389895572145550e+00 2.5945391012964127e+01 1.7745575386078599e+01 -1 2 0
1823 444 1 4.1499999999999998e-01 3.7878902876655784e+00 2.6616332425754504e+01 1.9379932988470184e+01 6 -3 0
1822 444 2 -8.2999999999999996e-01 3.2126680838764887e+00 2.5851253130868109e+01 1.9382153030646887e+01 6 -3 0
1328 444 1 4.1499999999999998e-01 4.0002050518580496e+00 2.5406856578078738e+01 1.6022007110482878e+01 1 4 0
1824 444 1 4.1499999999999998e-01 3.7545728584701838e+00 2.5144591526499269e+01 1.9733152204633686e+01 6 -3 0
3200 444 4 0.0000000000000000e+00 3.4729999999999999e+00 3.1549700000000001e+01 0.0000000000000000e+00 0 0 0
3201 444 4 0.0000000000000000e+00 3.4815800000000001e+00 3.1575640000000000e+01 3.5995100000000000e+00 0 0 0
3204 444 4 0.0000000000000000e+00 3.4729999999999999e+00 2.9732749999999999e+01 1.8169999999999999e+00 0 0 0
1689 444 1 4.1499999999999998e-01 2.6388532296504992e+00 2.8918678458256835e+01 6.7855379644632778e+00 1 2 0
248 444 1 4.1499999999999998e-01 2.8488433787010208e+00 3.2471544972934822e+01 7.0124560236413878e+00 -3 0 0
1549 444 2 -8.2999999999999996e-01 2.9012775595667555e+00 2.9273796535586499e+01 1.4086541484318488e+01 -1 -3 0
1531 444 2 -8.2999999999999996e-01 2.4698548031218417e+00 2.9554781284206975e+01 9.7999784912335457e+00 3 0 0
1724 444 1 4.1499999999999998e-01 3.9112128159851536e+00 3.0940605743396098e+01 8.0827937985665397e+00 3 0 0
1551 444 1 4.1499999999999998e-01 2.6407164045175686e+00 2.9126723916598312e+01 1.4995777226632748e+01 -1 -3 0
1533 444 1 4.1499999999999998e-01 2.2746881635552021e+00 3.0490590574395259e+01 9.7509597647097070e+00 3 0 0
1550 444 1 4.1499999999999998e-01 2.2475778868461522e+00 2.8802218170203634e+01 1.3570283176171118e+01 -1 -3 0