LAMMPS data file via write_data, version 11 Aug 2017, timestep = 1000000

3567 atoms
13 atom types
2024 bonds
5 bond types
1018 angles
5 angle types
12 dihedrals
4 dihedral types
9 impropers
1 improper types

0.0000000000000000e+00 3.2704500000000003e+01 xlo xhi
0.0000000000000000e+00 3.2704500000000003e+01 ylo yhi
0.0000000000000000e+00 8.0000000000000000e+01 zlo zhi

Masses

1 1.0079
2 15.9994
3 39.0983
4 63.546
5 12.011
6 15.9994
7 1.0079
8 1.0079
9 12.011
10 15.9994
11 15.9994
12 15.9994
13 1.0079

Bond Coeffs # harmonic

1 450 0.9572
2 570 1.229
3 450 1.364
4 570 1.229
5 553 0.945

Angle Coeffs # harmonic

1 100 123.32
2 85 124
3 55 104.52
4 35 113
5 100 123.32

Dihedral Coeffs # charmm

1 0.922 1 180 0
2 3.741 2 0 0
3 0.922 1 0 0
4 3.741 2 180 0

Improper Coeffs # umbrella

1 21 0

Atoms # full

3037 444 4 0.0000000000000000e+00 1.6631800000000001e+00 6.6618999999999995e-01 3.5925099999999999e+00 0 0 0
3039 444 4 0.0000000000000000e+00 1.6560500000000000e+00 2.4790000000000001e+00 1.8169999999999999e+00 0 0 0
3048 444 4 0.0000000000000000e+00 1.6560500000000000e+00 6.6205000000000003e-01 0.0000000000000000e+00 0 0 0
2998 444 2 -8.2999999999999996e-01 1.9106626551404107e+00 1.7842481497805440e+00 7.6608521851450124e+00 -1 -2 0
2095 444 2 -8.2999999999999996e-01 4.3181116154270111e-01 3.6779336222913042e+00 6.3839964331892549e+00 -2 2 0
2096 444 1 4.1499999999999998e-01 1.0462744432481972e+00 2.9492819478972141e+00 6.4719391234445958e+00 -2 2 0
2999 444 1 4.1499999999999998e-01 1.2593573311939810e+00 1.3193895279336993e+00 8.1861519753167702e+00 -1 -2 0
391 444 2 -8.2999999999999996e-01 1.5592555589555892e+00 9.1395476210351301e-01 1.5037183447069646e+01 -3 1 0
648 444 1 4.1499999999999998e-01 1.9560383198591222e+00 5.6373362288411266e-01 1.0107090212262269e+01 1 4 0
393 444 1 4.1499999999999998e-01 6.8437476174519341e-01 9.9660252566081908e-01 1.4657730176752986e+01 -3 1 0
2921 444 1 4.1499999999999998e-01 1.6365361930771769e+00 2.0799488424846646e+00 1.6359673161368427e+01 -1 1 0
2920 444 2 -8.2999999999999996e-01 1.2999969151751800e+00 2.4989758485710607e+00 1.7151753056459466e+01 -1 1 0
2922 444 1 4.1499999999999998e-01 1.8447092499256779e+00 2.1505511922555938e+00 1.7857529878400001e+01 -1 1 0
3054 444 4 0.0000000000000000e+00 1.6560500000000000e+00 4.2959500000000004e+00 0.0000000000000000e+00 0 0 0
3055 444 4 0.0000000000000000e+00 1.6587700000000001e+00 4.2979000000000003e+00 3.5872199999999999e+00 0 0 0
3057 444 4 0.0000000000000000e+00 1.6560500000000000e+00 6.1128000000000000e+00 1.8169999999999999e+00 0 0 0
3074 444 4 0.0000000000000000e+00 1.6560500000000000e+00 7.9297500000000003e+00 0.0000000000000000e+00 0 0 0
3075 444 4 0.0000000000000000e+00 1.6624000000000001e+00 7.9331699999999996e+00 3.5777600000000001e+00 0 0 0
1012 444 2 -8.2999999999999996e-01 8.4014900568648576e-01 6.4313909471990973e+00 7.6884981761230069e+00 0 -2 0
1013 444 1 4.1499999999999998e-01 1.6712153056479542e+00 6.3687138736866498e+00 7.2177191435228929e+00 0 -2 0
2097 444 1 4.1499999999999998e-01 9.7604603599799500e-01 4.4205337435246976e+00 6.1221083976254960e+00 -2 2 0
786 444 1 4.1499999999999998e-01 1.6881750777001103e+00 6.2096597420552371e+00 1.1723543960284520e+01 -1 2 0
27 444 1 4.1499999999999998e-01 6.6809230538896469e-01 7.8924166937636855e+00 9.4469114534157264e+00 3 0 0
1014 444 1 4.1499999999999998e-01 7.6183581661919964e-01 5.5961265590905063e+00 8.1494022452601396e+00 0 -2 0
999 444 1 4.1499999999999998e-01 4.3559672509677266e-01 5.2901424566664232e+00 1.5518863239859856e+01 3 -2 0
784 444 2 -8.2999999999999996e-01 7.6234440777816159e-01 6.0284184931812197e+00 1.1561614592638264e+01 -1 2 0
785 444 1 4.1499999999999998e-01 2.9519617149452787e-01 6.6219649651857377e+00 1.2149583142786296e+01 -1 2 0
69 444 1 4.1499999999999998e-01 9.6349583752877410e-01 6.9347345337582036e+00 1.9393041188747450e+01 -3 0 0
67 444 2 -8.2999999999999996e-01 1.0223070535690011e+00 6.1054937403063363e+00 1.8918558250393609e+01 -3 0 0
68 444 1 4.1499999999999998e-01 1.9089301671275085e+00 6.0977190623720459e+00 1.8557903881100660e+01 -3 0 0
998 444 1 4.1499999999999998e-01 4.2096232112396381e-01 5.7398790453982107e+00 1.6964345192437932e+01 3 -2 0
609 444 1 4.1499999999999998e-01 5.6955781329125821e-01 8.1579790976557103e+00 1.7097107365988997e+01 4 4 0
3077 444 4 0.0000000000000000e+00 1.6560500000000000e+00 9.7467000000000006e+00 1.8169999999999999e+00 0 0 0
3096 444 4 0.0000000000000000e+00 1.6631800000000001e+00 1.1567690000000001e+01 3.5925099999999999e+00 0 0 0
3107 444 4 0.0000000000000000e+00 1.6560500000000000e+00 1.1563549999999999e+01 0.0000000000000000e+00 0 0 0
103 444 2 -8.2999999999999996e-01 9.5199252697600567e-01 1.1807676830537227e+01 6.6379071802461755e+00 -4 -4 0
105 444 1 4.1499999999999998e-01 8.7354441112165260e-01 1.0881094186173716e+01 6.4109217966711434e+00 -4 -4 0
2638 444 2 -8.2999999999999996e-01 5.9824213937083615e-01 9.0321638194319629e+00 6.5265468234723567e+00 6 3 0
104 444 1 4.1499999999999998e-01 5.2399457218684165e-02 1.2134534111311922e+01 6.6265708803763710e+00 -4 -4 0
2639 444 1 4.1499999999999998e-01 8.8872251977750893e-01 8.5599243959071369e+00 7.3068307011503579e+00 6 3 0
2077 444 2 -8.2999999999999996e-01 1.0469954208260768e+00 1.1409698952864401e+01 9.2156222691863512e+00 4 -2 0
2079 444 1 4.1499999999999998e-01 7.4724644831705378e-01 1.0515111263904158e+01 9.3771625906755567e+00 4 -2 0
2078 444 1 4.1499999999999998e-01 9.5943130511934149e-01 1.1524964253375757e+01 8.2694307966849578e+00 4 -2 0
608 444 1 4.1499999999999998e-01 1.0395077035801015e+00 8.8891639855015772e+00 1.5857586902057808e+01 4 4 0
2836 444 2 -8.2999999999999996e-01 1.7951732863277794e+00 1.0822292223496365e+01 1.4779211849580282e+01 3 -3 0
2838 444 1 4.1499999999999998e-01 1.3597162812799719e+00 1.1455244048848405e+01 1.5350159598374201e+01 3 -3 0
25 444 2 -8.2999999999999996e-01 2.7323993444354200e-01 8.7616966971471388e+00 9.5152949062675827e+00 3 0 0
2312 444 1 4.1499999999999998e-01 1.2153909020737625e+00 9.3575778686060289e+00 1.2033209988612981e+01 1 0 0
2313 444 1 4.1499999999999998e-01 1.8309264753395018e+00 1.0086047364756352e+01 1.3208940975516292e+01 1 0 0
2635 444 2 -8.2999999999999996e-01 1.5524185395526993e-01 1.1399850558140324e+01 1.8494422896893486e+01 0 4 0
1603 444 2 -8.2999999999999996e-01 1.2226372421376721e+00 8.9106499965333814e+00 1.9510176255443891e+01 3 0 0
1605 444 1 4.1499999999999998e-01 6.5837467246058390e-01 9.6354295052764840e+00 1.9240854378025197e+01 3 0 0
2637 444 1 4.1499999999999998e-01 9.8502537420761016e-01 1.1661718023682724e+01 1.8095527327818704e+01 0 4 0
607 444 2 -8.2999999999999996e-01 3.5685439520578899e-01 8.8980372771317455e+00 1.6528509892767921e+01 4 4 0
3098 444 4 0.0000000000000000e+00 1.6560500000000000e+00 1.3380500000000000e+01 1.8169999999999999e+00 0 0 0
3113 444 4 0.0000000000000000e+00 1.6560500000000000e+00 1.5197450000000000e+01 0.0000000000000000e+00 0 0 0
3114 444 4 0.0000000000000000e+00 1.6587700000000001e+00 1.5199400000000001e+01 3.5872199999999999e+00 0 0 0
2913 444 1 4.1499999999999998e-01 1.0526567896216448e+00 1.4596896112776218e+01 6.4643384129687913e+00 0 -3 0
2911 444 2 -8.2999999999999996e-01 3.0927862914377258e-01 1.4990527184393414e+01 6.9211483756713923e+00 0 -3 0
863 444 1 4.1499999999999998e-01 2.0272842035382626e+00 1.2981533772527998e+01 6.5393611761750012e+00 1 -1 0
2912 444 1 4.1499999999999998e-01 5.2686593048631114e-01 1.5921036360896910e+01 6.9762874079492221e+00 0 -3 0
1273 444 2 -8.2999999999999996e-01 1.0194370550269867e+00 1.4186047251815902e+01 9.8549775552005894e+00 3 -1 0
1275 444 1 4.1499999999999998e-01 3.7670563395521189e-01 1.4504385691228157e+01 9.2211089327864713e+00 3 -1 0
1274 444 1 4.1499999999999998e-01 1.5229930569785608e+00 1.3527718028524180e+01 9.3761595676059759e+00 3 -1 0
1430 444 1 4.1499999999999998e-01 1.3715817279215667e+00 1.2950747162732455e+01 1.6505173074207779e+01 -1 -4 0
1287 444 1 4.1499999999999998e-01 6.6236849737808146e-01 1.6231426894044265e+01 1.7014272528077214e+01 2 1 0
1286 444 1 4.1499999999999998e-01 1.9950590912189157e+00 1.6297181095800816e+01 1.6299074731886343e+01 2 1 0
3116 444 4 0.0000000000000000e+00 1.6560500000000000e+00 1.7014299999999999e+01 1.8169999999999999e+00 0 0 0
3133 444 4 0.0000000000000000e+00 1.6560500000000000e+00 1.8831250000000001e+01 0.0000000000000000e+00 0 0 0
3134 444 4 0.0000000000000000e+00 1.6624000000000001e+00 1.8834669999999999e+01 3.5777600000000001e+00 0 0 0
2133 444 1 4.1499999999999998e-01 1.2953164438826217e+00 1.9181137458715547e+01 6.4821256151301210e+00 2 -2 0
553 444 2 -8.2999999999999996e-01 1.5202213980498309e+00 1.7193620948670567e+01 7.2362732630331301e+00 4 -3 0
2131 444 2 -8.2999999999999996e-01 1.6637108245166028e+00 2.0042554013389836e+01 6.2859650997303724e+00 2 -2 0
2121 444 1 4.1499999999999998e-01 5.1519863300991109e-01 1.7062893638079768e+01 1.2903223425966601e+01 -2 -5 0
969 444 1 4.1499999999999998e-01 1.5339023801070180e+00 1.7711526606839502e+01 1.0291261543691952e+01 1 2 0
2119 444 2 -8.2999999999999996e-01 4.4829371830336118e-01 1.7249190423718527e+01 1.3839732593715771e+01 -2 -5 0
2969 444 1 4.1499999999999998e-01 1.3388483323716931e+00 1.9628480808547629e+01 9.0989866999004683e+00 -3 -2 0
967 444 2 -8.2999999999999996e-01 1.2171881183102733e+00 1.7262546411922866e+01 1.1075061282109811e+01 1 2 0
2120 444 1 4.1499999999999998e-01 2.1309896710174189e-01 1.8175996503784130e+01 1.3883852561418854e+01 -2 -5 0
968 444 1 4.1499999999999998e-01 4.3016208101920567e-01 1.6800929437356338e+01 1.0785696454092870e+01 1 2 0
554 444 1 4.1499999999999998e-01 1.6989454518143803e+00 1.7666315728616937e+01 8.0491998326856731e+00 4 -3 0
2571 444 1 4.1499999999999998e-01 1.3742129423917062e+00 1.9531325976455868e+01 1.4987285780459084e+01 2 4 0
2569 444 2 -8.2999999999999996e-01 5.3736512357332411e-01 1.9884843825565646e+01 1.4685717560172757e+01 2 4 0
900 444 1 4.1499999999999998e-01 1.1087922953375748e+00 1.9612088449790715e+01 1.1840112304500961e+01 3 3 0
2570 444 1 4.1499999999999998e-01 7.2651688384410651e-01 2.0242334186136596e+01 1.3818160818511949e+01 2 4 0
1662 444 1 4.1499999999999998e-01 1.9502292067476488e+00 1.6562326299560524e+01 1.4502272462954080e+01 -2 5 0
898 444 2 -8.2999999999999996e-01 5.2711898532131773e-01 2.0344325606441377e+01 1.2044359717002632e+01 3 3 0
1285 444 2 -8.2999999999999996e-01 1.5771578106676520e+00 1.6483691664092046e+01 1.7139791648778203e+01 2 1 0
2101 444 2 -8.2999999999999996e-01 1.7344278324202655e+00 1.9397227783301158e+01 1.7705214016415788e+01 2 3 0
2103 444 1 4.1499999999999998e-01 1.7046845822143555e+00 1.8643012312000856e+01 1.8293861801181514e+01 2 3 0
2102 444 1 4.1499999999999998e-01 2.0101322854286483e+00 2.0125435085069736e+01 1.8261930326269979e+01 2 3 0
3136 444 4 0.0000000000000000e+00 1.6560500000000000e+00 2.0648199999999999e+01 1.8169999999999999e+00 0 0 0
3155 444 4 0.0000000000000000e+00 1.6631800000000001e+00 2.2469190000000001e+01 3.5925099999999999e+00 0 0 0
3157 444 4 0.0000000000000000e+00 1.6560500000000000e+00 2.4282000000000000e+01 1.8169999999999999e+00 0 0 0
3166 444 4 0.0000000000000000e+00 1.6560500000000000e+00 2.2465050000000002e+01 0.0000000000000000e+00 0 0 0
2132 444 1 4.1499999999999998e-01 9.1024741683039323e-01 2.0632880587602479e+01 6.2922337257453806e+00 2 -2 0
1540 444 2 -8.2999999999999996e-01 1.5891763020582008e+00 2.3835158260417437e+01 7.0659478355586351e+00 -1 1 0
2750 444 1 4.1499999999999998e-01 2.5992569574892233e-01 2.2533402471574188e+01 7.0612193711105880e+00 1 -1 0
899 444 1 4.1499999999999998e-01 2.6009367654346455e-01 2.0684156256783886e+01 1.1190284243378519e+01 3 3 0
649 444 2 -8.2999999999999996e-01 1.1261200458999729e+00 2.4227046372948376e+01 1.2935055734520491e+01 0 -2 0
799 444 2 -8.2999999999999996e-01 4.1499050406402743e-01 2.2893601370043150e+01 1.0380060209880229e+01 -1 1 0
651 444 1 4.1499999999999998e-01 1.1553454981205957e+00 2.4213748045935340e+01 1.3891717621993791e+01 0 -2 0
801 444 1 4.1499999999999998e-01 6.8535235449210974e-01 2.3531519409892972e+01 1.1040512493970040e+01 -1 1 0
2340 444 1 4.1499999999999998e-01 1.2107363991067199e-01 2.0510419350510769e+01 1.6837010695115051e+01 3 4 0
3172 444 4 0.0000000000000000e+00 1.6560500000000000e+00 2.6098949999999999e+01 0.0000000000000000e+00 0 0 0
3173 444 4 0.0000000000000000e+00 1.6587700000000001e+00 2.6100899999999999e+01 3.5872199999999999e+00 0 0 0
3175 444 4 0.0000000000000000e+00 1.6560500000000000e+00 2.7915800000000001e+01 1.8169999999999999e+00 0 0 0
2437 444 2 -8.2999999999999996e-01 3.7875416885904356e-01 2.7999278804110137e+01 7.8409512169414057e+00 -2 2 0
1542 444 1 4.1499999999999998e-01 2.0129657758318120e+00 2.4556611652661566e+01 6.6010399298533837e+00 -1 1 0
2930 444 1 4.1499999999999998e-01 1.9143351246766815e+00 2.8312237465135915e+01 6.6362550995300982e+00 3 3 0
1915 444 2 -8.2999999999999996e-01 1.4004002903161046e+00 2.4559157085698480e+01 1.5822805126754570e+01 2 -1 0
81 444 1 4.1499999999999998e-01 1.3286761275965784e+00 2.7414104103821664e+01 9.2579268624529867e+00 -1 -2 0
2564 444 1 4.1499999999999998e-01 1.2414503713473484e+00 2.8135095731591317e+01 1.4004563515958358e+01 0 3 0
283 444 2 -8.2999999999999996e-01 7.7541824410480131e-01 2.7107007257500310e+01 1.2798819900521160e+01 1 -1 0
79 444 2 -8.2999999999999996e-01 1.4642555401659945e+00 2.7466210713595405e+01 1.0204042596318045e+01 -1 -2 0
285 444 1 4.1499999999999998e-01 8.9360655862743055e-01 2.7216419994902122e+01 1.1855266240393505e+01 1 -1 0
650 444 1 4.1499999999999998e-01 1.4190932565862699e+00 2.5106993299882905e+01 1.2698216350610050e+01 0 -2 0
1917 444 1 4.1499999999999998e-01 8.6557693393780921e-01 2.5235267764036262e+01 1.6238822189660276e+01 2 -1 0
891 444 1 4.1499999999999998e-01 1.6260195383288139e+00 2.6929458845729680e+01 1.7226692882019226e+01 2 4 0
3192 444 4 0.0000000000000000e+00 1.6560500000000000e+00 2.9732749999999999e+01 0.0000000000000000e+00 0 0 0
3193 444 4 0.0000000000000000e+00 1.6624000000000001e+00 2.9736170000000001e+01 3.5777600000000001e+00 0 0 0
3195 444 4 0.0000000000000000e+00 1.6560500000000000e+00 3.1549700000000001e+01 1.8169999999999999e+00 0 0 0
2631 444 1 4.1499999999999998e-01 1.3618343847237611e+00 3.1481859809552070e+01 6.5822846062955795e+00 0 -2 0
1433 444 1 4.1499999999999998e-01 8.5346302598143742e-01 2.9497414208191906e+01 1.0448319489202456e+01 -1 0 0
943 444 2 -8.2999999999999996e-01 5.6177160800567327e-01 3.2139734994807817e+01 9.5593493834936005e+00 4 1 0
2563 444 2 -8.2999999999999996e-01 1.5242065073482336e+00 2.8892569053262648e+01 1.4516927204971028e+01 0 3 0
1563 444 1 4.1499999999999998e-01 1.5161882162839404e+00 3.1395116298838079e+01 1.2763098565378868e+01 1 2 0
944 444 1 4.1499999999999998e-01 6.8743719535789422e-02 3.2126896357706755e+01 8.7389893823264870e+00 4 1 0
338 444 1 4.1499999999999998e-01 2.8583254155146048e-01 3.1357809064423325e+01 1.5082174265790359e+01 4 -4 0
945 444 1 4.1499999999999998e-01 4.1127519403976182e-01 3.1275941347657593e+01 9.9433327594161600e+00 4 1 0
2565 444 1 4.1499999999999998e-01 7.1198569682317081e-01 2.9272381841556658e+01 1.4851997558347136e+01 0 3 0
337 444 2 -8.2999999999999996e-01 9.5440226019232119e-02 3.0667166193403453e+01 1.5716993182610919e+01 4 -4 0
1432 444 2 -8.2999999999999996e-01 2.2419668742447461e-02 2.9936946945305042e+01 1.0628348347109052e+01 -1 0 0
1602 444 1 4.1499999999999998e-01 1.4054458444493465e+00 3.0126816800286303e+01 1.6646157488424908e+01 0 -1 0
1601 444 1 4.1499999999999998e-01 1.6779739905720479e+00 3.0275257235102352e+01 1.8127909507513255e+01 0 -1 0
3038 444 4 0.0000000000000000e+00 3.4729999999999999e+00 6.6205000000000003e-01 1.8169999999999999e+00 0 0 0
3062 444 4 0.0000000000000000e+00 3.4724499999999998e+00 2.4784199999999998e+00 3.5947700000000000e+00 0 0 0
3063 444 4 0.0000000000000000e+00 3.4729999999999999e+00 2.4790000000000001e+00 0.0000000000000000e+00 0 0 0
19 444 1 4.1499999999999998e-01 3.2275983780090862e+00 2.7098259785920682e+00 7.1544984464026014e+00 2 3 0
3000 444 1 4.1499999999999998e-01 2.6702571712017784e+00 1.2018983267832983e+00 7.6500054817153256e+00 -1 -2 0
17 444 2 -8.2999999999999996e-01 3.7051446319126384e+00 3.5238388552238549e+00 6.9946071829463667e+00 2 3 0
1175 444 1 4.1499999999999998e-01 3.0011769989648904e+00 2.7361228308287768e+00 1.2976728294985197e+01 -1 3 0
1176 444 1 4.1499999999999998e-01 2.7748458057374776e+00 1.4792413582586652e+00 1.2163759447348953e+01 -1 3 0
392 444 1 4.1499999999999998e-01 2.1545241343809001e+00 1.0840183419765774e+00 1.4307138541502132e+01 -3 1 0
1174 444 2 -8.2999999999999996e-01 3.0524693352987922e+00 1.7816980975251626e+00 1.3028442603208743e+01 -1 3 0
646 444 2 -8.2999999999999996e-01 2.7687956458742460e+00 8.9509213280570643e-01 1.0489005025507282e+01 1 4 0
647 444 1 4.1499999999999998e-01 3.3727114715843576e+00 1.5354590537598736e-01 1.0448672426465238e+01 1 4 0
903 444 1 4.1499999999999998e-01 3.8120408782103818e+00 2.2666534438054500e+00 9.7720655609859683e+00 -1 0 0
1523 444 1 4.1499999999999998e-01 4.0148347249161578e+00 1.7160827776823102e+00 1.9727851812537601e+01 -5 1 0
1524 444 1 4.1499999999999998e-01 3.3117758890879565e+00 2.9857638312199875e+00 1.9297138855221625e+01 -5 1 0
1522 444 2 -8.2999999999999996e-01 3.6422522722844386e+00 2.1524099655352824e+00 1.8961670883892623e+01 -5 1 0
2083 444 2 -8.2999999999999996e-01 3.9279979663837725e+00 1.1639791295992866e-01 1.6464095289183014e+01 -2 1 0
3052 444 4 0.0000000000000000e+00 3.4729999999999999e+00 6.1128000000000000e+00 0.0000000000000000e+00 0 0 0
3053 444 4 0.0000000000000000e+00 3.4746700000000001e+00 6.1152300000000004e+00 3.5872899999999999e+00 0 0 0
3056 444 4 0.0000000000000000e+00 3.4729999999999999e+00 4.2959500000000004e+00 1.8169999999999999e+00 0 0 0
3076 444 4 0.0000000000000000e+00 3.4729999999999999e+00 7.9297500000000003e+00 1.8169999999999999e+00 0 0 0
2425 444 2 -8.2999999999999996e-01 3.4812590244697228e+00 6.2075205966595561e+00 6.8010811841593934e+00 -2 3 0
2427 444 1 4.1499999999999998e-01 3.5249343605037562e+00 5.2557671694355648e+00 6.8932209894159442e+00 -2 3 0
1902 444 1 4.1499999999999998e-01 3.9191931575684000e+00 7.2729822929533281e+00 1.0733034559332035e+01 -2 6 0
1647 444 1 4.1499999999999998e-01 3.1963970588923498e+00 5.1308910863619390e+00 1.1593423388705656e+01 2 1 0
1901 444 1 4.1499999999999998e-01 3.5728404080573024e+00 6.3056332113178755e+00 9.6212024031703987e+00 -2 6 0
742 444 2 -8.2999999999999996e-01 2.4690411645298291e+00 5.3690786139547315e+00 1.4686069175316298e+01 2 1 0
744 444 1 4.1499999999999998e-01 2.7161384414412897e+00 4.8626836225899499e+00 1.3912286444888950e+01 2 1 0
743 444 1 4.1499999999999998e-01 3.1928549583996464e+00 5.2395073026727834e+00 1.5298880034418460e+01 2 1 0
1900 444 2 -8.2999999999999996e-01 3.4669648701143330e+00 6.4468683249149992e+00 1.0561986654735680e+01 -2 6 0
1645 444 2 -8.2999999999999996e-01 3.3248943744155333e+00 4.5168119633933630e+00 1.2316352944848949e+01 2 1 0
355 444 2 -8.2999999999999996e-01 3.9382372277348967e+00 5.1349731289088165e+00 1.6983000863108330e+01 4 1 0
357 444 1 4.1499999999999998e-01 3.7781050457098946e+00 5.8160184443118235e+00 1.7636275261070136e+01 4 1 0
1924 444 2 -8.2999999999999996e-01 3.5092408917094748e+00 7.4676174346452928e+00 1.8354655714899160e+01 4 -1 0
1925 444 1 4.1499999999999998e-01 3.1547392936305130e+00 8.0670255112126128e+00 1.9011367787519642e+01 4 -1 0
1926 444 1 4.1499999999999998e-01 3.8126021100687004e+00 8.0378000511830212e+00 1.7648188542500453e+01 4 -1 0
3072 444 4 0.0000000000000000e+00 3.4729999999999999e+00 9.7467000000000006e+00 0.0000000000000000e+00 0 0 0
3073 444 4 0.0000000000000000e+00 3.4744500000000000e+00 9.7546199999999992e+00 3.5907600000000000e+00 0 0 0
3097 444 4 0.0000000000000000e+00 3.4729999999999999e+00 1.1563549999999999e+01 1.8169999999999999e+00 0 0 0
2040 444 1 4.1499999999999998e-01 3.6487471655153465e+00 8.6333800688839535e+00 6.4358082096578206e+00 4 -6 0
2042 444 1 4.1499999999999998e-01 4.0578765213388452e+00 9.4610865114504268e+00 7.6355625233418731e+00 4 -6 0
2837 444 1 4.1499999999999998e-01 2.4630339669091912e+00 1.0418754093749650e+01 1.5333605118076619e+01 3 -3 0
603 444 1 4.1499999999999998e-01 3.7528093971263701e+00 8.9069330191209737e+00 1.2158135605551868e+01 2 1 0
2934 444 1 4.1499999999999998e-01 2.7248994608950334e+00 9.8734573829975041e+00 9.5207055564690961e+00 5 -3 0
2311 444 2 -8.2999999999999996e-01 2.0570851109194668e+00 9.5614168103793507e+00 1.2440926055880288e+01 1 0 0
2358 444 1 4.1499999999999998e-01 3.5277233385303743e+00 1.1988502447183830e+01 1.1574011630967540e+01 2 3 0
2932 444 2 -8.2999999999999996e-01 3.6168534554515124e+00 9.8230177534849066e+00 9.1770399099177347e+00 5 -3 0
2933 444 1 4.1499999999999998e-01 3.9870175256028646e+00 1.0690183616301972e+01 9.3420677862896309e+00 5 -3 0
2123 444 1 4.1499999999999998e-01 3.9310915152279509e+00 1.0523232630567083e+01 1.7375353449480126e+01 -5 1 0
2122 444 2 -8.2999999999999996e-01 3.7437394583397263e+00 9.9662883353007778e+00 1.6619744440576959e+01 -5 1 0
3115 444 4 0.0000000000000000e+00 3.4729999999999999e+00 1.5197450000000000e+01 1.8169999999999999e+00 0 0 0
3121 444 4 0.0000000000000000e+00 3.4724499999999998e+00 1.3379920000000000e+01 3.5947700000000000e+00 0 0 0
3122 444 4 0.0000000000000000e+00 3.4729999999999999e+00 1.3380500000000000e+01 0.0000000000000000e+00 0 0 0
864 444 1 4.1499999999999998e-01 3.5200243043338895e+00 1.3160992213648289e+01 6.7166091998627655e+00 1 -1 0
29 444 1 4.1499999999999998e-01 3.2678367826905790e+00 1.5143854928293083e+01 6.6037159165752124e+00 3 -3 0
862 444 2 -8.2999999999999996e-01 2.7110951484596968e+00 1.3650716084087534e+01 6.5681636964744934e+00 1 -1 0
28 444 2 -8.2999999999999996e-01 3.8077737924649435e+00 1.5933462994857271e+01 6.6386306456242750e+00 3 -3 0
2711 444 1 4.1499999999999998e-01 2.4408256508258215e+00 1.6218252023495982e+01 1.1557951061660495e+01 2 -1 0
2712 444 1 4.1499999999999998e-01 2.4790081078118926e+00 1.4859054395932194e+01 1.0892354265770230e+01 2 -1 0
2710 444 2 -8.2999999999999996e-01 3.0165686397398890e+00 1.5471131637900813e+01 1.1394969419638338e+01 2 -1 0
1206 444 1 4.1499999999999998e-01 4.0432690396182736e+00 1.5581651827367796e+01 1.4128647912926423e+01 1 2 0
1215 444 1 4.1499999999999998e-01 2.6346596148529629e+00 1.3984619766841444e+01 1.8050700397606583e+01 1 -2 0
1213 444 2 -8.2999999999999996e-01 3.3451091297093862e+00 1.4227768355698686e+01 1.8644310242283254e+01 1 -2 0
1214 444 1 4.1499999999999998e-01 2.9353304130400817e+00 1.4259364026616655e+01 1.9508784095973752e+01 1 -2 0
1431 444 1 4.1499999999999998e-01 2.8789280804509030e+00 1.2816994681487650e+01 1.6548904806926682e+01 -1 -4 0
1429 444 2 -8.2999999999999996e-01 2.0852915844100184e+00 1.2600684809653222e+01 1.7038377009914146e+01 -1 -4 0
3111 444 4 0.0000000000000000e+00 3.4729999999999999e+00 1.7014299999999999e+01 0.0000000000000000e+00 0 0 0
3112 444 4 0.0000000000000000e+00 3.4746700000000001e+00 1.7016729999999999e+01 3.5872899999999999e+00 0 0 0
3135 444 4 0.0000000000000000e+00 3.4729999999999999e+00 1.8831250000000001e+01 1.8169999999999999e+00 0 0 0
555 444 1 4.1499999999999998e-01 2.3655578115984719e+00 1.6822308523289294e+01 6.9837535208373769e+00 4 -3 0
1001 444 1 4.1499999999999998e-01 3.5459329961795740e+00 1.9099141801624576e+01 6.6969652005081581e+00 -3 4 0
1633 444 2 -8.2999999999999996e-01 3.0431995783741801e+00 1.9155629759818090e+01 1.5409055779577104e+01 2 3 0
1635 444 1 4.1499999999999998e-01 3.9586816362166553e+00 1.9399445678938918e+01 1.5545724219224855e+01 2 3 0
2970 444 1 4.1499999999999998e-01 2.8391294582425637e+00 1.9547548356290967e+01 9.2847329725512946e+00 -3 -2 0
1661 444 1 4.1499999999999998e-01 2.9913133898192181e+00 1.7506117721927374e+01 1.5065563395583894e+01 -2 5 0
2968 444 2 -8.2999999999999996e-01 2.0518859807797956e+00 1.9005096640705581e+01 9.2375556686040632e+00 -3 -2 0
1660 444 2 -8.2999999999999996e-01 2.8145438322602843e+00 1.6577783835973982e+01 1.4913311589121641e+01 -2 5 0
453 444 1 4.1499999999999998e-01 4.0775359167628604e+00 1.9085519039738845e+01 1.2758790277667158e+01 -1 1 0
1943 444 1 4.1499999999999998e-01 3.3514683235322322e+00 1.6869754906116196e+01 1.9764715643553931e+01 -2 0 0
1942 444 2 -8.2999999999999996e-01 2.9882394443090354e+00 1.7451824265950666e+01 1.9097263659492103e+01 -2 0 0
1634 444 1 4.1499999999999998e-01 2.6315009603332933e+00 1.9279966866653066e+01 1.6264202800955591e+01 2 3 0
1944 444 1 4.1499999999999998e-01 2.4685046881322936e+00 1.6877400583706702e+01 1.8534994822031084e+01 -2 0 0
3131 444 4 0.0000000000000000e+00 3.4729999999999999e+00 2.0648199999999999e+01 0.0000000000000000e+00 0 0 0
3132 444 4 0.0000000000000000e+00 3.4744500000000000e+00 2.0656120000000001e+01 3.5907600000000000e+00 0 0 0
3156 444 4 0.0000000000000000e+00 3.4729999999999999e+00 2.2465050000000002e+01 1.8169999999999999e+00 0 0 0
3180 444 4 0.0000000000000000e+00 3.4724499999999998e+00 2.4281420000000001e+01 3.5947700000000000e+00 0 0 0
3181 444 4 0.0000000000000000e+00 3.4729999999999999e+00 2.4282000000000000e+01 0.0000000000000000e+00 0 0 0
2048 444 1 4.1499999999999998e-01 2.7916024075529888e+00 2.1145399261476456e+01 6.8012471610309975e+00 -2 0 0
2047 444 2 -8.2999999999999996e-01 3.3973788955148430e+00 2.1733985347570108e+01 7.2516189480250377e+00 -2 0 0
1541 444 1 4.1499999999999998e-01 2.2949737754368411e+00 2.3211027411354117e+01 7.2348930086021053e+00 -1 1 0
1217 444 1 4.1499999999999998e-01 3.5088545670911504e+00 2.1357945194447151e+01 1.3585362899569851e+01 -1 -2 0
1216 444 2 -8.2999999999999996e-01 3.2753060886271324e+00 2.2244072637831685e+01 1.3861887901825320e+01 -1 -2 0
213 444 1 4.1499999999999998e-01 3.5201545449188609e+00 2.2228809450099902e+01 1.0287183533667351e+01 -2 1 0
2049 444 1 4.1499999999999998e-01 3.3707206766985736e+00 2.1452064168693585e+01 8.1659727540771510e+00 -2 0 0
211 444 2 -8.2999999999999996e-01 2.9854407052980045e+00 2.1614133189500464e+01 9.7847036165536174e+00 -2 1 0
2186 444 1 4.1499999999999998e-01 3.5642907505437407e+00 2.3199260875743938e+01 1.2353333225553230e+01 -1 -1 0
1218 444 1 4.1499999999999998e-01 2.3202379230618297e+00 2.2232022598938215e+01 1.3924589940834329e+01 -1 -2 0
212 444 1 4.1499999999999998e-01 2.0828139353733865e+00 2.1860229347066159e+01 9.9870237942053102e+00 -2 1 0
2185 444 2 -8.2999999999999996e-01 3.8846340527611241e+00 2.3658350289340696e+01 1.1576898999201735e+01 -1 -1 0
1258 444 2 -8.2999999999999996e-01 2.9167127237193911e+00 2.1418791945328866e+01 1.8991977928168808e+01 2 -1 0
1260 444 1 4.1499999999999998e-01 3.1375718602665112e+00 2.2087268675392576e+01 1.8343447267457247e+01 2 -1 0
1714 444 2 -8.2999999999999996e-01 3.7254789063913027e+00 2.3991966995805292e+01 1.7507984031783408e+01 4 1 0
1259 444 1 4.1499999999999998e-01 2.5557549860352049e+00 2.1910240919983561e+01 1.9729826018145669e+01 2 -1 0
2109 444 1 4.1499999999999998e-01 2.4302980239507797e+00 2.4125329608827464e+01 1.9203318476617305e+01 0 -2 0
3170 444 4 0.0000000000000000e+00 3.4729999999999999e+00 2.7915800000000001e+01 0.0000000000000000e+00 0 0 0
3171 444 4 0.0000000000000000e+00 3.4746700000000001e+00 2.7918230000000001e+01 3.5872899999999999e+00 0 0 0
3174 444 4 0.0000000000000000e+00 3.4729999999999999e+00 2.6098949999999999e+01 1.8169999999999999e+00 0 0 0
1138 444 2 -8.2999999999999996e-01 3.2198180166533312e+00 2.5795975344675433e+01 6.3709338670996791e+00 3 4 0
1139 444 1 4.1499999999999998e-01 3.0929775171615863e+00 2.6743762088734268e+01 6.4138755721230130e+00 3 4 0
2929 444 2 -8.2999999999999996e-01 2.8320021210631379e+00 2.8577605915843996e+01 6.5754378780772100e+00 3 3 0
2556 444 1 4.1499999999999998e-01 3.3090373110219722e+00 2.7934613614821536e+01 1.5005549074598175e+01 2 -3 0
1831 444 2 -8.2999999999999996e-01 3.5587810026059783e+00 2.6158620465590523e+01 1.0687624085776104e+01 4 6 0
1832 444 1 4.1499999999999998e-01 3.5819960383535312e+00 2.5210025631107911e+01 1.0813569220262764e+01 4 6 0
80 444 1 4.1499999999999998e-01 2.2617388670053034e+00 2.6960444281251554e+01 1.0360415827418040e+01 -1 -2 0
2555 444 1 4.1499999999999998e-01 3.9997823626076303e+00 2.8234700052911528e+01 1.3692265127298400e+01 2 -3 0
1530 444 1 4.1499999999999998e-01 2.7459171004705292e+00 2.6945039106279680e+01 1.8868901730569110e+01 3 -3 0
1528 444 2 -8.2999999999999996e-01 2.8978909143519185e+00 2.7159474269472987e+01 1.9789311091283995e+01 3 -3 0
890 444 1 4.1499999999999998e-01 2.4393316689605569e+00 2.8206001438240559e+01 1.7255977367818012e+01 2 4 0
889 444 2 -8.2999999999999996e-01 2.5226304327331932e+00 2.7257481854593493e+01 1.7157978513606295e+01 2 4 0
1916 444 1 4.1499999999999998e-01 2.2219356758081217e+00 2.4567032792362777e+01 1.6313976620793124e+01 2 -1 0
3190 444 4 0.0000000000000000e+00 3.4729999999999999e+00 3.1549700000000001e+01 0.0000000000000000e+00 0 0 0
3191 444 4 0.0000000000000000e+00 3.4744500000000000e+00 3.1557620000000000e+01 3.5907600000000000e+00 0 0 0
3194 444 4 0.0000000000000000e+00 3.4729999999999999e+00 2.9732749999999999e+01 1.8169999999999999e+00 0 0 0
2630 444 1 4.1499999999999998e-01 2.6998229763122752e+00 3.2154334297002912e+01 6.3598890083955446e+00 0 -2 0
2629 444 2 -8.2999999999999996e-01 2.2844380821941206e+00 3.1293443634130895e+01 6.4104310480182214e+00 0 -2 0
2931 444 1 4.1499999999999998e-01 2.7986400854961855e+00 2.9515787145660294e+01 6.3885292545543875e+00 3 3 0
539 444 1 4.1499999999999998e-01 3.2945039934648159e+00 3.0082089978294796e+01 1.1776973184418129e+01 1 -3 0
1797 444 1 4.1499999999999998e-01 3.6422609077716364e+00 3.0370909229558574e+01 8.8189148890538398e+00 0 0 0
1562 444 1 4.1499999999999998e-01 2.2513349342811488e+00 3.0398869707721779e+01 1.3634274450515598e+01 1 2 0
540 444 1 4.1499999999999998e-01 3.2266408062853831e+00 2.8809073013791014e+01 1.0960444940008497e+01 1 -3 0
1795 444 2 -8.2999999999999996e-01 3.9843164411864342e+00 3.1263016174527621e+01 8.8770129832515998e+00 0 0 0