LAMMPS data file via write_data, version 11 Aug 2017, timestep = 1000000

3540 atoms
11 atom types
2024 bonds
5 bond types
1018 angles
5 angle types
12 dihedrals
4 dihedral types
9 impropers
1 improper types

0.0000000000000000e+00 3.2704500000000003e+01 xlo xhi
0.0000000000000000e+00 3.2704500000000003e+01 ylo yhi
0.0000000000000000e+00 8.0000000000000000e+01 zlo zhi

Masses

1 1.0079
2 15.9994
3 39.0983
4 63.546
5 12.011
6 1.0079
7 12.011
8 15.9994
9 15.9994
10 15.9994
11 1.0079

Bond Coeffs # harmonic

1 450 0.9572
2 570 1.229
3 450 1.364
4 570 1.229
5 553 0.945

Angle Coeffs # harmonic

1 100 123.32
2 85 124
3 55 104.52
4 35 113
5 100 123.32

Dihedral Coeffs # charmm

1 0.922 1 180 0
2 3.741 2 0 0
3 0.922 1 0 0
4 3.741 2 180 0

Improper Coeffs # umbrella

1 21 0

Atoms # full

3049 444 4 0.0000000000000000e+00 1.6634700000000000e+00 6.6822999999999999e-01 3.5783200000000002e+00 0 0 0
3051 444 4 0.0000000000000000e+00 1.6560500000000000e+00 2.4790000000000001e+00 1.8169999999999999e+00 0 0 0
3060 444 4 0.0000000000000000e+00 1.6560500000000000e+00 6.6205000000000003e-01 0.0000000000000000e+00 0 0 0
2747 444 1 4.1499999999999998e-01 6.0075841070733604e-01 4.0843594985577933e+00 7.1262419500070733e+00 4 0 0
1308 444 1 4.1499999999999998e-01 1.9126897379145067e+00 3.8391087499732601e-01 1.0492752783233472e+01 -7 3 0
1251 444 1 4.1499999999999998e-01 1.7437916508126285e+00 2.8272357849949650e+00 1.0775228292576957e+01 0 0 0
1250 444 1 4.1499999999999998e-01 3.0088075713523116e-01 2.3923117514096957e+00 1.0919256889931612e+01 0 0 0
1249 444 2 -8.2999999999999996e-01 1.1978410847408665e+00 2.1112423585301188e+00 1.1100071586630211e+01 0 0 0
489 444 1 4.1499999999999998e-01 9.9984114086353759e-01 1.1313603363732041e+00 1.2875328651645196e+01 -3 2 0
487 444 2 -8.2999999999999996e-01 9.7930649627578326e-01 3.9124241085538630e-01 1.3481988555053324e+01 -3 2 0
488 444 1 4.1499999999999998e-01 9.8460537870861536e-02 2.8519933612656236e-02 1.3388311389575643e+01 -3 2 0
1428 444 1 4.1499999999999998e-01 1.7466609653219927e+00 3.9454465629827391e+00 1.4168058100117323e+01 6 3 0
485 444 1 4.1499999999999998e-01 2.6141087720935552e-01 8.6291571008725776e-01 1.6417750241247951e+01 2 1 0
484 444 2 -8.2999999999999996e-01 6.5471728476513036e-01 1.3849622736440321e+00 1.7117042647885683e+01 2 1 0
566 444 1 4.1499999999999998e-01 1.7228316465543085e+00 3.1889753371613994e+00 1.9405490856417632e+01 -1 1 0
567 444 1 4.1499999999999998e-01 1.6619830872847516e+00 2.1338818877477821e+00 1.8321530347282959e+01 -1 1 0
486 444 1 4.1499999999999998e-01 2.0644040649457907e-03 2.0580002555014509e+00 1.7310166885595301e+01 2 1 0
3066 444 4 0.0000000000000000e+00 1.6560500000000000e+00 4.2959500000000004e+00 0.0000000000000000e+00 0 0 0
3067 444 4 0.0000000000000000e+00 1.6608700000000001e+00 4.2992499999999998e+00 3.5667900000000001e+00 0 0 0
3069 444 4 0.0000000000000000e+00 1.6560500000000000e+00 6.1128000000000000e+00 1.8169999999999999e+00 0 0 0
3086 444 4 0.0000000000000000e+00 1.6560500000000000e+00 7.9297500000000003e+00 0.0000000000000000e+00 0 0 0
3087 444 4 0.0000000000000000e+00 1.6724000000000001e+00 7.9309300000000000e+00 3.5685699999999998e+00 0 0 0
2624 444 1 4.1499999999999998e-01 1.8711645205236855e+00 7.0214271436007163e+00 6.6821908123470202e+00 -1 0 0
1405 444 2 -8.2999999999999996e-01 1.0324721086823390e+00 7.2878404105969192e+00 1.1442805720110293e+01 3 1 0
1407 444 1 4.1499999999999998e-01 1.4635213681670372e+00 6.7881682318960008e+00 1.0749439598061317e+01 3 1 0
1406 444 1 4.1499999999999998e-01 1.6582550239102856e+00 7.9766646976592801e+00 1.1666745511697737e+01 3 1 0
2051 444 1 4.1499999999999998e-01 3.0850549988865056e-01 7.8715232387126894e+00 1.5583598338319620e+01 1 -1 0
2557 444 2 -8.2999999999999996e-01 8.7313868486103696e-01 6.1256946072515399e+00 1.6897311941053470e+01 3 -2 0
2559 444 1 4.1499999999999998e-01 1.1552835862296897e+00 5.6040343833062209e+00 1.6145982035035875e+01 3 -2 0
2558 444 1 4.1499999999999998e-01 1.6823225207128165e+00 6.4962621230443736e+00 1.7249637206088174e+01 3 -2 0
835 444 2 -8.2999999999999996e-01 6.9868882762778539e-01 4.6385712621968471e+00 1.9395458124978656e+01 -3 -3 0
837 444 1 4.1499999999999998e-01 7.9493946422919237e-01 5.0174763528789947e+00 1.8521730945287221e+01 -3 -3 0
3089 444 4 0.0000000000000000e+00 1.6560500000000000e+00 9.7467000000000006e+00 1.8169999999999999e+00 0 0 0
3105 444 4 0.0000000000000000e+00 1.6634700000000000e+00 1.1569730000000000e+01 3.5783200000000002e+00 0 0 0
3116 444 4 0.0000000000000000e+00 1.6560500000000000e+00 1.1563549999999999e+01 0.0000000000000000e+00 0 0 0
607 444 2 -8.2999999999999996e-01 3.9166435351745715e-01 9.3114497882592016e+00 6.6189929379444363e+00 2 -1 0
608 444 1 4.1499999999999998e-01 7.7009932826889477e-02 9.7621315643279534e+00 7.4026449284216493e+00 2 -1 0
1592 444 1 4.1499999999999998e-01 1.9689661451876954e+00 9.7459756970056652e+00 6.4030191217289216e+00 2 1 0
609 444 1 4.1499999999999998e-01 4.0355772516281974e-01 8.3859246429299432e+00 6.8629075002771325e+00 2 -1 0
2050 444 2 -8.2999999999999996e-01 6.1176507666821489e-01 8.7700974779467593e+00 1.5713328748627927e+01 1 -1 0
1764 444 1 4.1499999999999998e-01 1.5057691324920459e+00 1.1565865182764902e+01 8.4453213250880506e+00 -1 2 0
1762 444 2 -8.2999999999999996e-01 7.1190415913284022e-01 1.1938528120137846e+01 8.0617426872531883e+00 -1 2 0
2052 444 1 4.1499999999999998e-01 1.1508479280491122e+00 8.7297615623660754e+00 1.6503262092670806e+01 1 -1 0
894 444 1 4.1499999999999998e-01 2.9846493417429315e-01 1.0164196094055063e+01 1.8522890000803681e+01 4 5 0
322 444 2 -8.2999999999999996e-01 1.8764566612114317e+00 9.5216656212386255e+00 1.8342024402956781e+01 4 -2 0
3107 444 4 0.0000000000000000e+00 1.6560500000000000e+00 1.3380500000000000e+01 1.8169999999999999e+00 0 0 0
3122 444 4 0.0000000000000000e+00 1.6560500000000000e+00 1.5197450000000000e+01 0.0000000000000000e+00 0 0 0
3123 444 4 0.0000000000000000e+00 1.6608700000000001e+00 1.5200749999999999e+01 3.5667900000000001e+00 0 0 0
1183 444 2 -8.2999999999999996e-01 6.3350835659206695e-01 1.5331092516112369e+01 6.4920797951314073e+00 3 -1 0
1185 444 1 4.1499999999999998e-01 4.2093682555316120e-01 1.6252507690185400e+01 6.3436236548562706e+00 3 -1 0
1763 444 1 4.1499999999999998e-01 1.0073125264467027e+00 1.2740435154381698e+01 7.6305689600754283e+00 -1 2 0
1599 444 1 4.1499999999999998e-01 1.9933999449134086e+00 1.4378857121334937e+01 6.9288506829884788e+00 1 -1 0
1442 444 1 4.1499999999999998e-01 1.6258718815107174e+00 1.3304837135571690e+01 1.4322447633382454e+01 0 2 0
1441 444 2 -8.2999999999999996e-01 1.6514639440326893e+00 1.2487583208480105e+01 1.3824779953808155e+01 0 2 0
1443 444 1 4.1499999999999998e-01 1.4342860707147023e+00 1.2745268834357368e+01 1.2928864686670746e+01 0 2 0
1393 444 2 -8.2999999999999996e-01 7.3835026853183527e-01 1.3060336558411288e+01 1.0935460540392871e+01 -7 -2 0
308 444 1 4.1499999999999998e-01 8.1825342984621174e-01 1.4991632897424546e+01 1.5387350027090090e+01 3 2 0
1395 444 1 4.1499999999999998e-01 5.3439279340372758e-01 1.3940291763871519e+01 1.0618738203706469e+01 -7 -2 0
307 444 2 -8.2999999999999996e-01 1.5485167354372040e+00 1.4891804991376606e+01 1.5998072989115833e+01 3 2 0
2411 444 1 4.1499999999999998e-01 1.7464007542708793e-01 1.5329788764866070e+01 1.2076442827451162e+01 -2 1 0
2436 444 1 4.1499999999999998e-01 3.6420517606424041e-01 1.5541295480800008e+01 8.5239752469775709e+00 -3 0 0
2977 444 2 -8.2999999999999996e-01 1.6199582815996798e+00 1.6021718555803808e+01 1.9331851335359413e+01 2 1 0
309 444 1 4.1499999999999998e-01 1.1421517353707948e+00 1.4917697915657998e+01 1.6864346491102982e+01 3 2 0
2978 444 1 4.1499999999999998e-01 1.5847270667099156e+00 1.5211104984868069e+01 1.9839686397065670e+01 2 1 0
3125 444 4 0.0000000000000000e+00 1.6560500000000000e+00 1.7014299999999999e+01 1.8169999999999999e+00 0 0 0
3142 444 4 0.0000000000000000e+00 1.6560500000000000e+00 1.8831250000000001e+01 0.0000000000000000e+00 0 0 0
3143 444 4 0.0000000000000000e+00 1.6724000000000001e+00 1.8832429999999999e+01 3.5685699999999998e+00 0 0 0
576 444 1 4.1499999999999998e-01 5.5276504301530294e-01 1.8697201390511484e+01 6.7666560240107065e+00 7 1 0
1766 444 1 4.1499999999999998e-01 1.3935804905529086e+00 1.9711624380843066e+01 7.9542303062348596e+00 2 1 0
574 444 2 -8.2999999999999996e-01 2.3687922898047331e-01 1.7832228573995394e+01 7.0279425628986356e+00 7 1 0
2850 444 1 4.1499999999999998e-01 8.8413034295977344e-01 1.7708089057013446e+01 1.0420369856862168e+01 2 0 0
597 444 1 4.1499999999999998e-01 3.0483471322507877e-01 1.9260829369285243e+01 1.3422680403922451e+01 -1 2 0
2849 444 1 4.1499999999999998e-01 4.5197163840186327e-01 1.9046027094201865e+01 9.8590714895932638e+00 2 0 0
595 444 2 -8.2999999999999996e-01 4.1544481915461906e-01 1.8322156644299074e+01 1.3271383387064065e+01 -1 2 0
2848 444 2 -8.2999999999999996e-01 4.7985277096360707e-01 1.8538911668103587e+01 1.0670421703739601e+01 2 0 0
596 444 1 4.1499999999999998e-01 6.5409465237077502e-01 1.8254567866462093e+01 1.2346878175295316e+01 -1 2 0
2606 444 1 4.1499999999999998e-01 1.4760135787537341e+00 1.7088839966729555e+01 1.8096266928880656e+01 1 2 0
2607 444 1 4.1499999999999998e-01 1.9001697104072142e+00 1.8471417972902845e+01 1.7648531929280033e+01 1 2 0
2605 444 2 -8.2999999999999996e-01 1.2852670486184596e+00 1.7766014419299403e+01 1.7447203521571407e+01 1 2 0
2240 444 1 4.1499999999999998e-01 4.1873313342854307e-01 1.7553248951578166e+01 1.6212350411306687e+01 -3 -3 0
3145 444 4 0.0000000000000000e+00 1.6560500000000000e+00 2.0648199999999999e+01 1.8169999999999999e+00 0 0 0
3161 444 4 0.0000000000000000e+00 1.6634700000000000e+00 2.2471229999999998e+01 3.5783200000000002e+00 0 0 0
3163 444 4 0.0000000000000000e+00 1.6560500000000000e+00 2.4282000000000000e+01 1.8169999999999999e+00 0 0 0
3172 444 4 0.0000000000000000e+00 1.6560500000000000e+00 2.2465050000000002e+01 0.0000000000000000e+00 0 0 0
1987 444 2 -8.2999999999999996e-01 5.6667800507753752e-01 2.0593267922657944e+01 6.9353981543705903e+00 2 -1 0
1989 444 1 4.1499999999999998e-01 1.3006892800096648e+00 2.0901334054512450e+01 6.4038393410310332e+00 2 -1 0
1956 444 1 4.1499999999999998e-01 1.1784870606034539e+00 2.3772392691518260e+01 6.9662904393456246e+00 1 1 0
2535 444 1 4.1499999999999998e-01 5.7616455075074158e-01 2.1442854572705794e+01 1.4128068213830430e+01 1 -4 0
2533 444 2 -8.2999999999999996e-01 2.1949741949821436e-01 2.0902905014133726e+01 1.3422749212511386e+01 1 -4 0
3043 444 11 3.5999999999999999e-01 1.9320678856515408e+00 2.0489767633961630e+01 1.2117440989637961e+01 0 1 0
1280 444 1 4.1499999999999998e-01 1.1467043755017610e+00 2.3898638506263705e+01 1.0473621455270006e+01 -1 0 0
666 444 1 4.1499999999999998e-01 1.2318222306728008e+00 2.3282427253634683e+01 1.5634256062841599e+01 -2 -1 0
665 444 1 4.1499999999999998e-01 1.0469378998355401e+00 2.3647032101677890e+01 1.4176594640204984e+01 -2 -1 0
664 444 2 -8.2999999999999996e-01 8.2565008152235941e-01 2.2976808406597588e+01 1.4823173839041395e+01 -2 -1 0
1279 444 2 -8.2999999999999996e-01 5.4798426273698897e-01 2.4504969118108054e+01 1.0037583320353999e+01 -1 0 0
2049 444 1 4.1499999999999998e-01 1.1321378584326802e+00 2.2498859023791869e+01 1.7832528477316632e+01 1 2 0
2047 444 2 -8.2999999999999996e-01 1.6393849221064547e+00 2.3242913962166387e+01 1.7508006177996652e+01 1 2 0
1508 444 1 4.1499999999999998e-01 4.1692281812710175e-01 2.0681336229079985e+01 1.7809516749927177e+01 -2 2 0
3178 444 4 0.0000000000000000e+00 1.6560500000000000e+00 2.6098949999999999e+01 0.0000000000000000e+00 0 0 0
3179 444 4 0.0000000000000000e+00 1.6608700000000001e+00 2.6102250000000002e+01 3.5667900000000001e+00 0 0 0
3181 444 4 0.0000000000000000e+00 1.6560500000000000e+00 2.7915800000000001e+01 1.8169999999999999e+00 0 0 0
1993 444 2 -8.2999999999999996e-01 3.9159887986200304e-01 2.7158447342124710e+01 6.5555481340244484e+00 2 -1 0
1995 444 1 4.1499999999999998e-01 7.1774097449157048e-01 2.6263742732144831e+01 6.6523307098294788e+00 2 -1 0
1954 444 2 -8.2999999999999996e-01 7.8422963690539194e-01 2.4601889823252392e+01 7.2359707123889248e+00 1 1 0
2007 444 1 4.1499999999999998e-01 1.0630346328747375e+00 2.7171711260108495e+01 1.2971024064755388e+01 3 3 0
929 444 1 4.1499999999999998e-01 1.9595781474828318e+00 2.5511476067238362e+01 1.2855300475186665e+01 4 2 0
2005 444 2 -8.2999999999999996e-01 3.5053248050783609e-01 2.6990375415433725e+01 1.3583960599142893e+01 3 3 0
1361 444 1 4.1499999999999998e-01 4.7317463149859162e-01 2.6263631473656314e+01 1.5049857034384342e+01 -4 2 0
1955 444 1 4.1499999999999998e-01 9.6956727750834404e-01 2.4662236091588667e+01 8.1731153806952292e+00 1 1 0
1054 444 2 -8.2999999999999996e-01 1.9897474254086984e+00 2.5802571668328266e+01 1.9615984879397999e+01 -3 2 0
1056 444 1 4.1499999999999998e-01 1.0331861263613122e+00 2.5814911443622638e+01 1.9583261455412739e+01 -3 2 0
1360 444 2 -8.2999999999999996e-01 5.8194077897265928e-01 2.6295512790015827e+01 1.6000322901584024e+01 -4 2 0
9 444 1 4.1499999999999998e-01 6.1526718046609796e-01 2.8372824370440075e+01 1.8038626408438287e+01 -2 6 0
1362 444 1 4.1499999999999998e-01 1.2820248872705520e-01 2.5515703979135296e+01 1.6320090784249530e+01 -4 2 0
3198 444 4 0.0000000000000000e+00 1.6560500000000000e+00 2.9732749999999999e+01 0.0000000000000000e+00 0 0 0
3199 444 4 0.0000000000000000e+00 1.6724000000000001e+00 2.9733930000000001e+01 3.5685699999999998e+00 0 0 0
3201 444 4 0.0000000000000000e+00 1.6560500000000000e+00 3.1549700000000001e+01 1.8169999999999999e+00 0 0 0
725 444 1 4.1499999999999998e-01 1.1743045102025080e+00 3.1685048816187372e+01 6.7196231301090474e+00 -1 0 0
2335 444 2 -8.2999999999999996e-01 2.7119123084154229e-01 3.0086198373600233e+01 6.7170705074860892e+00 1 -4 0
724 444 2 -8.2999999999999996e-01 1.7651477532253608e+00 3.2437987277124819e+01 6.7047588353239549e+00 -1 0 0
2337 444 1 4.1499999999999998e-01 5.9168991568095441e-01 2.9326493646759310e+01 6.2309002849121926e+00 1 -4 0
851 444 1 4.1499999999999998e-01 1.8899717802380592e-01 2.9187532031184123e+01 1.3385020635933884e+01 0 -1 0
1306 444 2 -8.2999999999999996e-01 1.9227141133392396e+00 3.2260572020418373e+01 1.0012320793730815e+01 -7 2 0
2105 444 1 4.1499999999999998e-01 1.9169309115789249e-01 3.1652907508217353e+01 1.0343393918800627e+01 -2 3 0
847 444 2 -8.2999999999999996e-01 2.1773390955909605e-01 3.0143332245436145e+01 1.3428056972768696e+01 0 -1 0
162 444 1 4.1499999999999998e-01 1.1044499582539953e+00 3.2240747265326839e+01 1.8806782848627872e+01 -2 -4 0
160 444 2 -8.2999999999999996e-01 1.6588554789004384e+00 3.1911824235999330e+01 1.9514367983629096e+01 -2 -4 0
3050 444 4 0.0000000000000000e+00 3.4729999999999999e+00 6.6205000000000003e-01 1.8169999999999999e+00 0 0 0
3074 444 4 0.0000000000000000e+00 3.4698099999999998e+00 2.4737000000000000e+00 3.5775800000000002e+00 0 0 0
3075 444 4 0.0000000000000000e+00 3.4729999999999999e+00 2.4790000000000001e+00 0.0000000000000000e+00 0 0 0
547 444 2 -8.2999999999999996e-01 3.2409043649378031e+00 1.8755923181008058e+00 6.4222998641786653e+00 1 3 0
1377 444 1 4.1499999999999998e-01 2.6435070204930371e+00 3.4577584686364138e+00 6.8781994043658647e+00 2 0 0
549 444 1 4.1499999999999998e-01 2.6070526278671173e+00 1.1755907178029363e+00 6.5787017420868255e+00 1 3 0
548 444 1 4.1499999999999998e-01 4.0319761831971741e+00 1.5894827269051339e+00 6.8790037933915995e+00 1 3 0
918 444 1 4.1499999999999998e-01 3.5397144620340195e+00 1.2285416675810130e+00 1.4179906162049575e+01 0 -2 0
917 444 1 4.1499999999999998e-01 3.3315091123822640e+00 1.2854581167754380e+00 1.2681471516441206e+01 0 -2 0
916 444 2 -8.2999999999999996e-01 3.9319338695399892e+00 9.5623327617867182e-01 1.3350301162411109e+01 0 -2 0
1427 444 1 4.1499999999999998e-01 3.0069658880447303e+00 3.9968504500406552e+00 1.5005246407299776e+01 6 3 0
1525 444 2 -8.2999999999999996e-01 4.0255222152939023e+00 2.8540041091025268e+00 1.5429814581927353e+01 2 -3 0
21 444 1 4.1499999999999998e-01 3.9999084550524167e+00 3.6024932467164441e+00 9.8384534974739548e+00 5 3 0
565 444 2 -8.2999999999999996e-01 2.2031194837946080e+00 2.4418894633592143e+00 1.9048534161788531e+01 -1 1 0
2867 444 1 4.1499999999999998e-01 3.5526761670022031e+00 1.7896554619779967e-01 1.9912664545815289e+01 -4 1 0
1311 444 1 4.1499999999999998e-01 2.4716850405111108e+00 3.2742374276633840e-01 1.6839565022760393e+01 5 -5 0
2919 444 1 4.1499999999999998e-01 3.9234763056770565e+00 3.8021637714471552e+00 1.8708336810680315e+01 0 3 0
3064 444 4 0.0000000000000000e+00 3.4729999999999999e+00 6.1128000000000000e+00 0.0000000000000000e+00 0 0 0
3065 444 4 0.0000000000000000e+00 3.4754100000000001e+00 6.1100300000000001e+00 3.5764300000000002e+00 0 0 0
3068 444 4 0.0000000000000000e+00 3.4729999999999999e+00 4.2959500000000004e+00 1.8169999999999999e+00 0 0 0
3088 444 4 0.0000000000000000e+00 3.4729999999999999e+00 7.9297500000000003e+00 1.8169999999999999e+00 0 0 0
1376 444 1 4.1499999999999998e-01 2.8174367270175598e+00 4.9613626053604190e+00 6.9068038507134100e+00 2 0 0
2623 444 2 -8.2999999999999996e-01 2.8064525748596414e+00 7.1778678294771607e+00 6.8125533492643608e+00 -1 0 0
2625 444 1 4.1499999999999998e-01 2.9552778893112901e+00 8.0536222466741965e+00 6.4559905615066135e+00 -1 0 0
1375 444 2 -8.2999999999999996e-01 2.2146464458028028e+00 4.2640462288837977e+00 7.1649231524430013e+00 2 0 0
1686 444 1 4.1499999999999998e-01 2.9683256785664782e+00 6.6834423332974433e+00 8.6657525849165769e+00 3 -4 0
2476 444 2 -8.2999999999999996e-01 2.2566773198982339e+00 4.1809614661732066e+00 9.8105690079112620e+00 0 1 0
249 444 1 4.1499999999999998e-01 3.4814952670753874e+00 5.8740029564221494e+00 1.3982141188364494e+01 2 -2 0
2478 444 1 4.1499999999999998e-01 2.5341937626713693e+00 5.0823577627345751e+00 9.9739739850834308e+00 0 1 0
1684 444 2 -8.2999999999999996e-01 3.1500174573174711e+00 6.6807887634708676e+00 9.6055470294175276e+00 3 -4 0
1426 444 2 -8.2999999999999996e-01 2.3587092693811256e+00 4.5566864124291060e+00 1.4577953886198667e+01 6 3 0
2477 444 1 4.1499999999999998e-01 2.0617096685068925e+00 4.1559656098234807e+00 8.8737687904158431e+00 0 1 0
728 444 1 4.1499999999999998e-01 3.6971357458734215e+00 6.0620107004756116e+00 1.7944937977292614e+01 2 0 0
727 444 2 -8.2999999999999996e-01 3.3148700155957176e+00 6.8573432953477162e+00 1.7574059495368552e+01 2 0 0
729 444 1 4.1499999999999998e-01 3.9454678851530356e+00 7.1405040252583198e+00 1.6911943061907046e+01 2 0 0
3084 444 4 0.0000000000000000e+00 3.4729999999999999e+00 9.7467000000000006e+00 0.0000000000000000e+00 0 0 0
3085 444 4 0.0000000000000000e+00 3.4700000000000002e+00 9.7633299999999998e+00 3.5802399999999999e+00 0 0 0
3106 444 4 0.0000000000000000e+00 3.4729999999999999e+00 1.1563549999999999e+01 1.8169999999999999e+00 0 0 0
1591 444 2 -8.2999999999999996e-01 2.9184622863156480e+00 9.8396669739903864e+00 6.4799014570241749e+00 2 1 0
1593 444 1 4.1499999999999998e-01 3.0415606177391945e+00 1.0441824345384516e+01 7.2137169336843527e+00 2 1 0
2716 444 2 -8.2999999999999996e-01 3.1952972167909626e+00 1.1185572851530976e+01 9.0069062317110671e+00 0 0 0
2718 444 1 4.1499999999999998e-01 3.2779929004202506e+00 1.1132773369113977e+01 9.9590645797101995e+00 0 0 0
2829 444 1 4.1499999999999998e-01 2.2182299838843114e+00 1.0281643054612076e+01 1.5535135525431414e+01 6 2 0
2717 444 1 4.1499999999999998e-01 3.8121233331010984e+00 1.1870992453070565e+01 8.7500846514095603e+00 0 0 0
152 444 1 4.1499999999999998e-01 2.7985637006264223e+00 1.0998664326736687e+01 1.2199493189044903e+01 3 -1 0
151 444 2 -8.2999999999999996e-01 3.4898567492151056e+00 1.0850282054130915e+01 1.1554257779228269e+01 3 -1 0
2828 444 1 4.1499999999999998e-01 2.7254508602778196e+00 1.1456506467273618e+01 1.4726236194391065e+01 6 2 0
2827 444 2 -8.2999999999999996e-01 3.0207615721964411e+00 1.0743458379874047e+01 1.5292439231059735e+01 6 2 0
1795 444 2 -8.2999999999999996e-01 3.7581319480592623e+00 1.1069901568761923e+01 1.9638984518534841e+01 2 -2 0
324 444 1 4.1499999999999998e-01 2.4374888611470431e+00 1.0205701469479393e+01 1.8707496118671742e+01 4 -2 0
323 444 1 4.1499999999999998e-01 2.4427692596451629e+00 8.7521143872587714e+00 1.8284469362654580e+01 4 -2 0
3124 444 4 0.0000000000000000e+00 3.4729999999999999e+00 1.5197450000000000e+01 1.8169999999999999e+00 0 0 0
3130 444 4 0.0000000000000000e+00 3.4698099999999998e+00 1.3375200000000000e+01 3.5775800000000002e+00 0 0 0
3131 444 4 0.0000000000000000e+00 3.4729999999999999e+00 1.3380500000000000e+01 0.0000000000000000e+00 0 0 0
1597 444 2 -8.2999999999999996e-01 2.6862998812071792e+00 1.3790644204209766e+01 7.2290647478731334e+00 1 -1 0
1542 444 1 4.1499999999999998e-01 2.8649383476527417e+00 1.5750153070502730e+01 1.2676923056595824e+01 1 -1 0
1145 444 1 4.1499999999999998e-01 2.2688892268659600e+00 1.3598046562505555e+01 1.0099586350899724e+01 -1 -3 0
1540 444 2 -8.2999999999999996e-01 2.6213671102448717e+00 1.6087613827080922e+01 1.1814933872906503e+01 1 -1 0
1144 444 2 -8.2999999999999996e-01 3.0215850988688464e+00 1.4170907884120314e+01 9.9529212602024071e+00 -1 -3 0
1146 444 1 4.1499999999999998e-01 2.8490595832573216e+00 1.4938264421290729e+01 1.0498476636158079e+01 -1 -3 0
1598 444 1 4.1499999999999998e-01 2.8830743246293005e+00 1.4085681189907170e+01 8.1181461835739892e+00 1 -1 0
2088 444 1 4.1499999999999998e-01 3.4674717074716863e+00 1.4653672210548271e+01 1.6159019210798370e+01 -3 1 0
2979 444 1 4.1499999999999998e-01 2.5535673848454641e+00 1.6221370056682716e+01 1.9262964500918116e+01 2 1 0
3120 444 4 0.0000000000000000e+00 3.4729999999999999e+00 1.7014299999999999e+01 0.0000000000000000e+00 0 0 0
3121 444 4 0.0000000000000000e+00 3.4754100000000001e+00 1.7011530000000000e+01 3.5764300000000002e+00 0 0 0
3144 444 4 0.0000000000000000e+00 3.4729999999999999e+00 1.8831250000000001e+01 1.8169999999999999e+00 0 0 0
89 444 1 4.1499999999999998e-01 2.5142553862966590e+00 1.6365489258219327e+01 6.3362603316169670e+00 1 -2 0
90 444 1 4.1499999999999998e-01 3.3007592789477664e+00 1.7086387441628244e+01 7.4103239107366790e+00 1 -2 0
668 444 1 4.1499999999999998e-01 3.8841702865206127e+00 1.8438451227639920e+01 6.6982036885450178e+00 -1 1 0
88 444 2 -8.2999999999999996e-01 3.2677924984952376e+00 1.6941609171033242e+01 6.4647107576242062e+00 1 -2 0
5 444 1 4.1499999999999998e-01 3.6629241560911234e+00 1.9396655033066928e+01 1.1355514825964590e+01 3 2 0
1541 444 1 4.1499999999999998e-01 3.0817807548322094e+00 1.6923955192995415e+01 1.1745760697164492e+01 1 -1 0
172 444 2 -8.2999999999999996e-01 3.6432910133944856e+00 1.7502237466283756e+01 8.9214035067543360e+00 4 -4 0
173 444 1 4.1499999999999998e-01 2.9418593568863791e+00 1.8153224434213364e+01 8.9003918750483333e+00 4 -4 0
1767 444 1 4.1499999999999998e-01 2.6054625956459079e+00 2.0177234222546389e+01 8.7329757287492846e+00 2 1 0
29 444 1 4.1499999999999998e-01 3.8836926317712153e+00 1.9209820699113443e+01 1.4879948715360751e+01 -2 -3 0
1765 444 2 -8.2999999999999996e-01 2.0673008893008884e+00 1.9404573254099198e+01 8.5609034517278282e+00 2 1 0
1108 444 2 -8.2999999999999996e-01 2.2494384154451539e+00 2.0135752918277454e+01 1.7979018257774687e+01 6 -3 0
1110 444 1 4.1499999999999998e-01 2.0642301919737185e+00 2.0234682073763050e+01 1.8912904298045415e+01 6 -3 0
3140 444 4 0.0000000000000000e+00 3.4729999999999999e+00 2.0648199999999999e+01 0.0000000000000000e+00 0 0 0
3141 444 4 0.0000000000000000e+00 3.4700000000000002e+00 2.0664829999999998e+01 3.5802399999999999e+00 0 0 0
3162 444 4 0.0000000000000000e+00 3.4729999999999999e+00 2.2465050000000002e+01 1.8169999999999999e+00 0 0 0
3186 444 4 0.0000000000000000e+00 3.4698099999999998e+00 2.4276700000000002e+01 3.5775800000000002e+00 0 0 0
3187 444 4 0.0000000000000000e+00 3.4729999999999999e+00 2.4282000000000000e+01 0.0000000000000000e+00 0 0 0
252 444 1 4.1499999999999998e-01 3.3525667717433683e+00 2.2378912454236332e+01 6.6117200451376306e+00 -2 -1 0
250 444 2 -8.2999999999999996e-01 2.5545315604645116e+00 2.2711887788262977e+01 7.0222064419672545e+00 -2 -1 0
251 444 1 4.1499999999999998e-01 2.5250857776703999e+00 2.2279231770106680e+01 7.8755372815650659e+00 -2 -1 0
3039 444 7 1.0800000000000001e+00 2.5567970214984328e+00 2.1844424950574606e+01 1.0777575767860718e+01 0 1 0
930 444 1 4.1499999999999998e-01 2.1761513472017175e+00 2.4052577778036479e+01 1.2513822901481802e+01 4 2 0
2376 444 1 4.1499999999999998e-01 3.4408602408389499e+00 2.3810654632978338e+01 9.6816830289258782e+00 -1 0 0
1751 444 1 4.1499999999999998e-01 3.7073402993106410e+00 2.2028057711695883e+01 1.3538518541722864e+01 1 1 0
3042 444 10 -7.8000000000000003e-01 2.6710556702285357e+00 2.0757149734221876e+01 1.1545784700056283e+01 0 1 0
3041 444 9 -8.0000000000000004e-01 2.8354547168885160e+00 2.1763244470546539e+01 9.5982210988709085e+00 0 1 0
3040 444 8 -8.5999999999999999e-01 2.2433446465581044e+00 2.2930342165947554e+01 1.1303888378196639e+01 0 1 0
2048 444 1 4.1499999999999998e-01 2.0708968637832097e+00 2.3596685468705552e+01 1.8285743504120546e+01 1 2 0
70 444 2 -8.2999999999999996e-01 2.8464083284003716e+00 2.3250966212394779e+01 1.9940072107315533e+01 -2 -1 0
1109 444 1 4.1499999999999998e-01 3.1322458529230812e+00 2.0489502777833678e+01 1.7870644825247847e+01 6 -3 0
3176 444 4 0.0000000000000000e+00 3.4729999999999999e+00 2.7915800000000001e+01 0.0000000000000000e+00 0 0 0
3177 444 4 0.0000000000000000e+00 3.4754100000000001e+00 2.7913029999999999e+01 3.5764300000000002e+00 0 0 0
3180 444 4 0.0000000000000000e+00 3.4729999999999999e+00 2.6098949999999999e+01 1.8169999999999999e+00 0 0 0
1210 444 2 -8.2999999999999996e-01 3.2486372392014964e+00 2.6916273554218201e+01 6.9413182033801863e+00 -1 -1 0
1212 444 1 4.1499999999999998e-01 3.3868538845617233e+00 2.6162032355986984e+01 6.3683885214627471e+00 -1 -1 0
1211 444 1 4.1499999999999998e-01 2.3194572778678562e+00 2.7124536690774917e+01 6.8439358393114889e+00 -1 -1 0
2117 444 1 4.1499999999999998e-01 3.3873508840116635e+00 2.7926693119569897e+01 1.5083328654805603e+01 0 -3 0
1516 444 2 -8.2999999999999996e-01 3.6663662417452656e+00 2.6858953977557277e+01 9.5597621998975999e+00 2 3 0
1517 444 1 4.1499999999999998e-01 3.3354057821381726e+00 2.7145844490031884e+01 8.7086506402330954e+00 2 3 0
2118 444 1 4.1499999999999998e-01 2.0913367475055495e+00 2.8159083563071661e+01 1.5830481417130553e+01 0 -3 0
2375 444 1 4.1499999999999998e-01 3.9343988701142600e+00 2.5232609607531597e+01 9.8440391436069135e+00 -1 0 0
2116 444 2 -8.2999999999999996e-01 2.7611582338762957e+00 2.8611611906670486e+01 1.5317851515598612e+01 0 -3 0
537 444 1 4.1499999999999998e-01 3.8230269033247177e+00 2.5073882021782865e+01 1.4182629767339986e+01 1 0 0
1373 444 1 4.1499999999999998e-01 2.6120151504146709e+00 2.7080824299457966e+01 1.0869901149524493e+01 4 4 0
1374 444 1 4.1499999999999998e-01 2.4074802397424677e+00 2.8162005968609833e+01 1.1909664258156047e+01 4 4 0
928 444 2 -8.2999999999999996e-01 2.2274858162687794e+00 2.4676124862469155e+01 1.3238243849287278e+01 4 2 0
1372 444 2 -8.2999999999999996e-01 2.0862627361294570e+00 2.7302021989735174e+01 1.1638594098422100e+01 4 4 0
732 444 1 4.1499999999999998e-01 2.4221948992719544e+00 2.5937382470317360e+01 1.6731059143126942e+01 3 -3 0
1028 444 1 4.1499999999999998e-01 2.3241178212638074e+00 2.7281284651144261e+01 1.8714885829449834e+01 -2 -2 0
730 444 2 -8.2999999999999996e-01 3.3589545840260007e+00 2.5971052723460854e+01 1.6924914478093584e+01 3 -3 0
731 444 1 4.1499999999999998e-01 3.7832578625203688e+00 2.5730244423439249e+01 1.6101378992273659e+01 3 -3 0
1027 444 2 -8.2999999999999996e-01 2.1730274250319601e+00 2.8185930691569332e+01 1.8440989742811123e+01 -2 -2 0
1055 444 1 4.1499999999999998e-01 2.2171834295300323e+00 2.4873021549217928e+01 1.9637015742108073e+01 -3 2 0
3196 444 4 0.0000000000000000e+00 3.4729999999999999e+00 3.1549700000000001e+01 0.0000000000000000e+00 0 0 0
3197 444 4 0.0000000000000000e+00 3.4700000000000002e+00 3.1566330000000001e+01 3.5802399999999999e+00 0 0 0
3200 444 4 0.0000000000000000e+00 3.4729999999999999e+00 2.9732749999999999e+01 1.8169999999999999e+00 0 0 0
726 444 1 4.1499999999999998e-01 2.5934820374361407e+00 3.2086624003310448e+01 6.3782024565883999e+00 -1 0 0
1230 444 1 4.1499999999999998e-01 2.4478041085686555e+00 3.0782239031318152e+01 1.0920190751511569e+01 0 2 0
1228 444 2 -8.2999999999999996e-01 2.5836190310908265e+00 3.0281447461209062e+01 1.1724550074317676e+01 0 2 0
3031 444 3 1.0000000000000000e+00 2.8227022568768252e+00 3.1162947765709763e+01 1.4062101649086156e+01 2 -1 0
1229 444 1 4.1499999999999998e-01 3.5242068834983615e+00 3.0104680045836268e+01 1.1741266740331818e+01 0 2 0
1307 444 1 4.1499999999999998e-01 2.0483776667926406e+00 3.2515120310927557e+01 9.0981840262684983e+00 -7 2 0
1310 444 1 4.1499999999999998e-01 3.1063792011398306e+00 3.1746180558499351e+01 1.7325284008519155e+01 5 -6 0
1309 444 2 -8.2999999999999996e-01 2.9232165156034258e+00 3.2246666125811430e+01 1.6530175497943137e+01 5 -6 0
1029 444 1 4.1499999999999998e-01 2.6446093385561502e+00 2.8713728503880823e+01 1.9085405584924288e+01 -2 -2 0
3054 444 4 0.0000000000000000e+00 5.2898399999999999e+00 6.6205000000000003e-01 0.0000000000000000e+00 0 0 0
3055 444 4 0.0000000000000000e+00 5.2759400000000003e+00 6.6879000000000000e-01 3.5798500000000000e+00 0 0 0
3057 444 4 0.0000000000000000e+00 5.2898399999999999e+00 2.4790000000000001e+00 1.8169999999999999e+00 0 0 0
185 444 1 4.1499999999999998e-01 5.3601801490009153e+00 2.4628751926900607e+00 5.8616890680334448e+00 -1 -3 0
184 444 2 -8.2999999999999996e-01 5.9886328206771022e+00 2.0760059836339648e+00 6.4712883553061653e+00 -1 -3 0
1388 444 1 4.1499999999999998e-01 5.9436610650254122e+00 3.3145812384707098e+00 1.1073045860361773e+01 -1 1 0
16 444 2 -8.2999999999999996e-01 4.9224089491008698e+00 3.4223684916135055e+00 9.6573996060071643e+00 5 3 0