LAMMPS data file via write_data, version 11 Aug 2017, timestep = 1000000

3558 atoms
11 atom types
2024 bonds
5 bond types
1018 angles
5 angle types
12 dihedrals
4 dihedral types
9 impropers
1 improper types

0.0000000000000000e+00 3.2704500000000003e+01 xlo xhi
0.0000000000000000e+00 3.2704500000000003e+01 ylo yhi
0.0000000000000000e+00 8.0000000000000000e+01 zlo zhi

Masses

1 1.0079
2 15.9994
3 39.0983
4 63.546
5 12.011
6 1.0079
7 12.011
8 15.9994
9 15.9994
10 15.9994
11 1.0079

Bond Coeffs # harmonic

1 450 0.9572
2 570 1.229
3 450 1.364
4 570 1.229
5 553 0.945

Angle Coeffs # harmonic

1 100 123.32
2 85 124
3 55 104.52
4 35 113
5 100 123.32

Dihedral Coeffs # charmm

1 0.922 1 180 0
2 3.741 2 0 0
3 0.922 1 0 0
4 3.741 2 180 0

Improper Coeffs # umbrella

1 21 0

Atoms # full

3037 444 4 0.0000000000000000e+00 1.6669200000000000e+00 6.6776999999999997e-01 3.5964100000000001e+00 0 0 0
3039 444 4 0.0000000000000000e+00 1.6560500000000000e+00 2.4790000000000001e+00 1.8169999999999999e+00 0 0 0
3048 444 4 0.0000000000000000e+00 1.6560500000000000e+00 6.6205000000000003e-01 0.0000000000000000e+00 0 0 0
1650 444 1 4.1499999999999998e-01 2.4646120644228678e-01 3.0013456521421520e+00 7.1655759959836276e+00 0 1 0
1950 444 1 4.1499999999999998e-01 1.7700829492317769e+00 1.5202718036392955e+00 7.0184304369817125e+00 -2 0 0
2299 444 2 -8.2999999999999996e-01 4.4994417058843106e-02 8.7482654152941430e-01 6.9127744473291566e+00 5 -1 0
2301 444 1 4.1499999999999998e-01 2.6748725925932426e-01 2.1191460558608932e-02 6.5412417128734131e+00 5 -1 0
1652 444 1 4.1499999999999998e-01 1.1068516007866145e+00 2.1797949811134485e+00 9.6265239930211361e+00 1 0 0
876 444 1 4.1499999999999998e-01 1.5639123520265485e+00 1.8331679975939970e+00 1.2738613743959258e+01 -2 1 0
874 444 2 -8.2999999999999996e-01 7.1052528015339533e-01 1.6733704430030765e+00 1.3141637624352581e+01 -2 1 0
875 444 1 4.1499999999999998e-01 8.2666533350492644e-01 8.6184280136237490e-01 1.3635770049301415e+01 -2 1 0
1651 444 2 -8.2999999999999996e-01 2.0163795988681561e+00 2.4780170908096935e+00 9.6191317090133008e+00 1 0 0
359 444 1 4.1499999999999998e-01 1.1841594498197093e-01 2.8779913243187898e+00 1.5999685322582959e+01 -3 -2 0
419 444 1 4.1499999999999998e-01 1.8386526479288534e-01 1.2928207654276764e+00 1.1505315054869051e+01 2 1 0
996 444 1 4.1499999999999998e-01 1.9678890604213017e+00 1.8860934590065881e-03 1.5670372522891842e+01 -3 4 0
727 444 2 -8.2999999999999996e-01 3.7270038654072496e-01 2.8362725992497242e+00 1.8482202308191273e+01 3 1 0
728 444 1 4.1499999999999998e-01 4.2331278343702650e-02 3.4010318051234285e+00 1.9180869714646558e+01 3 1 0
3054 444 4 0.0000000000000000e+00 1.6560500000000000e+00 4.2959500000000004e+00 0.0000000000000000e+00 0 0 0
3055 444 4 0.0000000000000000e+00 1.6718000000000000e+00 4.2853100000000000e+00 3.5766100000000001e+00 0 0 0
3057 444 4 0.0000000000000000e+00 1.6560500000000000e+00 6.1128000000000000e+00 1.8169999999999999e+00 0 0 0
3074 444 4 0.0000000000000000e+00 1.6560500000000000e+00 7.9297500000000003e+00 0.0000000000000000e+00 0 0 0
3075 444 4 0.0000000000000000e+00 1.6726000000000001e+00 7.9456800000000003e+00 3.5820099999999999e+00 0 0 0
1938 444 1 4.1499999999999998e-01 1.2180480444444546e+00 5.1646659693672028e+00 7.0520818322333616e+00 1 5 0
2128 444 2 -8.2999999999999996e-01 1.6170074611479093e+00 7.9608821157136500e+00 6.0499273717498463e+00 2 -3 0
1937 444 1 4.1499999999999998e-01 1.8565731927979325e+00 6.3530051888818431e+00 6.3650369817357575e+00 1 5 0
1568 444 1 4.1499999999999998e-01 1.5060637229026713e-01 8.1291857041838114e+00 1.2208434005567160e+01 -3 -5 0
1825 444 2 -8.2999999999999996e-01 1.5261486410769540e-01 5.8392307379089932e+00 1.5759534507973136e+01 0 -1 0
1434 444 1 4.1499999999999998e-01 1.1734835184175514e+00 5.4276437402747133e+00 1.1752548909937085e+01 -2 -4 0
2818 444 2 -8.2999999999999996e-01 7.4239867535585979e-01 7.2121320763025558e+00 1.3532874940542419e+01 5 3 0
2820 444 1 4.1499999999999998e-01 5.9818717019470369e-01 6.8702704739486000e+00 1.4415239162636420e+01 5 3 0
2819 444 1 4.1499999999999998e-01 1.6115259282823975e+00 6.8924299484868046e+00 1.3290717436070876e+01 5 3 0
1827 444 1 4.1499999999999998e-01 8.3438331693005185e-01 5.2124610516518146e+00 1.6001573956651676e+01 0 -1 0
3077 444 4 0.0000000000000000e+00 1.6560500000000000e+00 9.7467000000000006e+00 1.8169999999999999e+00 0 0 0
3095 444 4 0.0000000000000000e+00 1.6669200000000000e+00 1.1569269999999999e+01 3.5964100000000001e+00 0 0 0
3106 444 4 0.0000000000000000e+00 1.6560500000000000e+00 1.1563549999999999e+01 0.0000000000000000e+00 0 0 0
2130 444 1 4.1499999999999998e-01 9.1107741961159505e-01 8.5785533120635424e+00 6.2406563038808107e+00 2 -3 0
1696 444 2 -8.2999999999999996e-01 1.3560682151146825e-01 1.0110422012874222e+01 7.0071167310889200e+00 2 3 0
1435 444 2 -8.2999999999999996e-01 1.7464925729743634e+00 1.2007350108653425e+01 6.4224089780310347e+00 -4 -4 0
1698 444 1 4.1499999999999998e-01 7.1961597015891388e-01 1.0755879855824578e+01 6.6089342501061346e+00 2 3 0
2196 444 1 4.1499999999999998e-01 1.6765018232240940e+00 9.2964897901778603e+00 1.0307083496732000e+01 2 -5 0
314 444 1 4.1499999999999998e-01 5.6570943400385854e-01 1.0917751654749294e+01 1.2762461105772429e+01 1 4 0
1776 444 1 4.1499999999999998e-01 8.9976165341864789e-01 1.0402449101313030e+01 1.5668271888250288e+01 1 0 0
865 444 2 -8.2999999999999996e-01 1.6760369786238398e+00 1.0945768895012108e+01 1.4098336961528558e+01 -3 -4 0
764 444 1 4.1499999999999998e-01 6.7451753851869389e-01 1.1501559464386263e+01 9.0650081087871648e+00 0 0 0
867 444 1 4.1499999999999998e-01 1.8602370067301084e+00 1.1884597309401361e+01 1.4128395721950909e+01 -3 -4 0
1774 444 2 -8.2999999999999996e-01 4.3454625859719959e-01 1.0247233692441657e+01 1.6490290507401930e+01 1 0 0
2662 444 2 -8.2999999999999996e-01 1.2758650163352629e+00 1.2187325313093481e+01 1.9822608999908923e+01 4 -5 0
1775 444 1 4.1499999999999998e-01 1.1275444769163980e+00 1.0105092451390338e+01 1.7135101450137622e+01 1 0 0
3097 444 4 0.0000000000000000e+00 1.6560500000000000e+00 1.3380500000000000e+01 1.8169999999999999e+00 0 0 0
3112 444 4 0.0000000000000000e+00 1.6560500000000000e+00 1.5197450000000000e+01 0.0000000000000000e+00 0 0 0
3113 444 4 0.0000000000000000e+00 1.6718000000000000e+00 1.5186809999999999e+01 3.5766100000000001e+00 0 0 0
1522 444 2 -8.2999999999999996e-01 1.3908833529984956e+00 1.5897314032132190e+01 7.4243729179618265e+00 2 3 0
1436 444 1 4.1499999999999998e-01 1.0878798712005722e+00 1.2696145821287121e+01 6.5119782494248861e+00 -4 -4 0
461 444 1 4.1499999999999998e-01 1.2195834908044514e-01 1.4684567132590320e+01 6.7133085890998574e+00 -2 -1 0
1458 444 1 4.1499999999999998e-01 1.8929646652958214e+00 1.3211222977521707e+01 1.0719388091979404e+01 5 -3 0
1657 444 2 -8.2999999999999996e-01 2.6488136741839036e-01 1.3865088974057167e+01 1.2946686013721523e+01 0 -3 0
1658 444 1 4.1499999999999998e-01 1.2900822288782993e-01 1.4725103017866571e+01 1.2549010102054014e+01 0 -3 0
1524 444 1 4.1499999999999998e-01 1.1024045196963090e+00 1.6309834348880145e+01 8.2385219763619677e+00 2 3 0
613 444 2 -8.2999999999999996e-01 6.5042599210520813e-01 1.4196802074761663e+01 1.5531913977610580e+01 0 -2 0
1659 444 1 4.1499999999999998e-01 6.5787518739799600e-01 1.4054085556157485e+01 1.3798782252900839e+01 0 -3 0
763 444 2 -8.2999999999999996e-01 3.4899577246545271e-01 1.2266448437176070e+01 9.5395734336250211e+00 0 0 0
614 444 1 4.1499999999999998e-01 1.1806779922402020e+00 1.4391720458600693e+01 1.6304617972655659e+01 0 -2 0
731 444 1 4.1499999999999998e-01 1.5364906635610749e+00 1.4802364325472158e+01 1.8722906842071602e+01 3 3 0
730 444 2 -8.2999999999999996e-01 1.8628224572911336e+00 1.4554031196216192e+01 1.7857996566313705e+01 3 3 0
1974 444 1 4.1499999999999998e-01 1.4165842049542543e-01 1.5475308175908609e+01 1.9905376969584175e+01 7 3 0
2663 444 1 4.1499999999999998e-01 1.8714360974475481e+00 1.2583679582893174e+01 1.9186660081120497e+01 4 -5 0
3115 444 4 0.0000000000000000e+00 1.6560500000000000e+00 1.7014299999999999e+01 1.8169999999999999e+00 0 0 0
3132 444 4 0.0000000000000000e+00 1.6560500000000000e+00 1.8831250000000001e+01 0.0000000000000000e+00 0 0 0
3133 444 4 0.0000000000000000e+00 1.6726000000000001e+00 1.8847180000000002e+01 3.5820099999999999e+00 0 0 0
140 444 1 4.1499999999999998e-01 1.4301101745775149e+00 1.7772517600944045e+01 6.8751463000633839e+00 0 1 0
139 444 2 -8.2999999999999996e-01 1.6407501925294112e+00 1.8655995126598093e+01 7.1773559167020755e+00 0 1 0
2929 444 2 -8.2999999999999996e-01 3.5766388781863184e-01 1.8881092315309406e+01 1.3846902074203713e+01 -4 1 0
2965 444 2 -8.2999999999999996e-01 4.7080546573075793e-01 1.8265792643204733e+01 9.6053606771639917e+00 2 2 0
1603 444 2 -8.2999999999999996e-01 8.3945608721524512e-01 1.7034545203578613e+01 1.2050813087725206e+01 1 4 0
2966 444 1 4.1499999999999998e-01 1.3917241630242447e+00 1.8087036147719832e+01 9.7955907837416483e+00 2 2 0
2930 444 1 4.1499999999999998e-01 9.7955391732251884e-01 1.9285312395110306e+01 1.4451956347525664e+01 -4 1 0
141 444 1 4.1499999999999998e-01 1.3858908544750783e+00 1.8661168057438712e+01 8.0999891831516049e+00 0 1 0
2967 444 1 4.1499999999999998e-01 3.1586826004178636e-01 1.9138150888486294e+01 9.9676006320071764e+00 2 2 0
1604 444 1 4.1499999999999998e-01 5.9147832281573476e-01 1.7628689034517073e+01 1.2759143361536406e+01 1 4 0
1605 444 1 4.1499999999999998e-01 5.7582973245395408e-02 1.6976201971161252e+01 1.1501720889287546e+01 1 4 0
1163 444 1 4.1499999999999998e-01 1.7086378925649048e+00 1.8486302694149774e+01 1.6497379161167807e+01 2 -1 0
803 444 1 4.1499999999999998e-01 1.1920314785321255e-01 1.9424472209003955e+01 1.8303060807051146e+01 0 -3 0
1162 444 2 -8.2999999999999996e-01 1.3717034981939324e+00 1.8272145067515329e+01 1.7367347157858418e+01 2 -1 0
1676 444 1 4.1499999999999998e-01 1.7801686180451101e-01 1.7125698822611984e+01 1.8041589616949960e+01 5 -1 0
3135 444 4 0.0000000000000000e+00 1.6560500000000000e+00 2.0648199999999999e+01 1.8169999999999999e+00 0 0 0
3153 444 4 0.0000000000000000e+00 1.6669200000000000e+00 2.2470770000000002e+01 3.5964100000000001e+00 0 0 0
3155 444 4 0.0000000000000000e+00 1.6560500000000000e+00 2.4282000000000000e+01 1.8169999999999999e+00 0 0 0
3164 444 4 0.0000000000000000e+00 1.6560500000000000e+00 2.2465050000000002e+01 0.0000000000000000e+00 0 0 0
1478 444 1 4.1499999999999998e-01 1.4831920919931357e-01 2.2981933123982778e+01 6.7253361716964548e+00 -3 0 0
1399 444 2 -8.2999999999999996e-01 1.5983550530410384e+00 2.1690654826490356e+01 7.0677687752350700e+00 -1 1 0
1400 444 1 4.1499999999999998e-01 1.6366342979345649e+00 2.0839549540648257e+01 6.6314354780560132e+00 -1 1 0
1401 444 1 4.1499999999999998e-01 1.8048592235780443e+00 2.1500678322649676e+01 7.9829177964311331e+00 -1 1 0
524 444 1 4.1499999999999998e-01 2.0157530725568926e+00 2.3551659995036349e+01 6.4611292616659579e+00 -1 -4 0
1095 444 1 4.1499999999999998e-01 6.4360938636038900e-01 2.3919494015952690e+01 1.0543425039770927e+01 1 1 0
1093 444 2 -8.2999999999999996e-01 1.4062581073332141e+00 2.3517741812987744e+01 1.0127258776211582e+01 1 1 0
1094 444 1 4.1499999999999998e-01 1.3779261405998682e+00 2.2602684788172045e+01 1.0406722992662985e+01 1 1 0
162 444 1 4.1499999999999998e-01 1.0300454943695350e+00 2.1932045242065922e+01 1.5803529765088657e+01 -3 -3 0
160 444 2 -8.2999999999999996e-01 1.8716047555725127e-01 2.1517496503529831e+01 1.5987719585554107e+01 -3 -3 0
2565 444 1 4.1499999999999998e-01 5.5412425549227440e-01 2.1752373879441205e+01 1.2532782202098181e+01 -1 1 0
2564 444 1 4.1499999999999998e-01 6.5298737134271423e-01 2.1109966512004657e+01 1.1165509716206879e+01 -1 1 0
2563 444 2 -8.2999999999999996e-01 1.1774384469476209e+00 2.1548360106289437e+01 1.1835580383110083e+01 -1 1 0
1444 444 2 -8.2999999999999996e-01 4.7411245890342801e-01 2.4410585620340314e+01 1.7095433018151535e+01 -1 0 0
108 444 1 4.1499999999999998e-01 1.1199249227239123e+00 2.1677316184104196e+01 1.8867203976193515e+01 2 -3 0
1445 444 1 4.1499999999999998e-01 1.2059123335058870e+00 2.3809887440959955e+01 1.6954498350276840e+01 -1 0 0
3170 444 4 0.0000000000000000e+00 1.6560500000000000e+00 2.6098949999999999e+01 0.0000000000000000e+00 0 0 0
3171 444 4 0.0000000000000000e+00 1.6718000000000000e+00 2.6088310000000000e+01 3.5766100000000001e+00 0 0 0
3173 444 4 0.0000000000000000e+00 1.6560500000000000e+00 2.7915800000000001e+01 1.8169999999999999e+00 0 0 0
1273 444 2 -8.2999999999999996e-01 5.5949729029422623e-01 2.6618306317566812e+01 6.8153177435758829e+00 3 -2 0
1274 444 1 4.1499999999999998e-01 5.1368831293135431e-01 2.5951292823690920e+01 6.1303164407241946e+00 3 -2 0
2354 444 1 4.1499999999999998e-01 2.0161504185947305e+00 2.6589497739170493e+01 7.8635388530203452e+00 0 3 0
1188 444 1 4.1499999999999998e-01 7.9474953544618210e-01 2.4537037772769338e+01 1.3085969951786174e+01 -1 -2 0
626 444 1 4.1499999999999998e-01 1.7070827296424422e+00 2.7690721283466569e+01 1.5901262180125505e+01 6 0 0
1635 444 1 4.1499999999999998e-01 3.5059832388986067e-01 2.7581439359598541e+01 1.1855193415525671e+01 5 1 0
1186 444 2 -8.2999999999999996e-01 1.6596958553163341e+00 2.4893224356646922e+01 1.3289024348237991e+01 -1 -2 0
2773 444 2 -8.2999999999999996e-01 1.9025386679768008e+00 2.8459385416666176e+01 1.2031401642517247e+01 5 3 0
1187 444 1 4.1499999999999998e-01 1.9361245970676908e+00 2.5327065380229097e+01 1.2481805940742356e+01 -1 -2 0
191 444 1 4.1499999999999998e-01 3.2741038404582173e-01 2.6205203462348866e+01 1.6452438140060110e+01 1 -3 0
190 444 2 -8.2999999999999996e-01 6.8874360469625348e-02 2.7116603129844385e+01 1.6315538044386305e+01 1 -3 0
3190 444 4 0.0000000000000000e+00 1.6560500000000000e+00 2.9732749999999999e+01 0.0000000000000000e+00 0 0 0
3191 444 4 0.0000000000000000e+00 1.6726000000000001e+00 2.9748680000000000e+01 3.5820099999999999e+00 0 0 0
3193 444 4 0.0000000000000000e+00 1.6560500000000000e+00 3.1549700000000001e+01 1.8169999999999999e+00 0 0 0
16 444 2 -8.2999999999999996e-01 5.9409022682328361e-01 3.0866156496442031e+01 6.9940335829159155e+00 1 0 0
18 444 1 4.1499999999999998e-01 7.1261302899605061e-01 3.0903838627897198e+01 7.9431195268751180e+00 1 0 0
21 444 1 4.1499999999999998e-01 1.3747480435321315e+00 3.0415198067010820e+01 6.6724100135664282e+00 1 0 0
425 444 1 4.1499999999999998e-01 6.7086155100513067e-01 2.9742249354503116e+01 1.4675003568950508e+01 4 -3 0
2775 444 1 4.1499999999999998e-01 1.3787117555499622e+00 2.8967463883484395e+01 1.1411971329212220e+01 5 3 0
1875 444 1 4.1499999999999998e-01 1.6904131106526925e+00 3.0922258083319566e+01 1.0344974327790560e+01 0 -1 0
994 444 2 -8.2999999999999996e-01 1.4787729443811544e+00 3.2210185667810734e+01 1.5014032386912413e+01 -3 3 0
995 444 1 4.1499999999999998e-01 1.9918904918746476e+00 3.1412559879139494e+01 1.4884667246640284e+01 -3 3 0
1873 444 2 -8.2999999999999996e-01 1.5444153421317595e+00 3.0170897995423072e+01 9.7701921734008703e+00 0 -1 0
1751 444 1 4.1499999999999998e-01 2.4731530940677260e-02 2.9128819854555239e+01 9.2154733105093207e+00 0 -3 0
911 444 1 4.1499999999999998e-01 6.0730021711078802e-02 3.0000838049516627e+01 1.8695237118771118e+01 -1 -3 0
912 444 1 4.1499999999999998e-01 1.2335837563538663e+00 3.0934890666786838e+01 1.8485822144274142e+01 -1 -3 0
910 444 2 -8.2999999999999996e-01 2.7688842558872384e-01 3.0914599441396753e+01 1.8509367856335107e+01 -1 -3 0
3038 444 4 0.0000000000000000e+00 3.4729999999999999e+00 6.6205000000000003e-01 1.8169999999999999e+00 0 0 0
3062 444 4 0.0000000000000000e+00 3.4846699999999999e+00 2.4684499999999998e+00 3.5945800000000001e+00 0 0 0
3063 444 4 0.0000000000000000e+00 3.4729999999999999e+00 2.4790000000000001e+00 0.0000000000000000e+00 0 0 0
1948 444 2 -8.2999999999999996e-01 2.6870799872315643e+00 1.5666923821488843e+00 7.2889732710919857e+00 -2 0 0
1303 444 2 -8.2999999999999996e-01 4.0218803371687208e+00 3.8840834087759637e+00 7.2278084755800895e+00 7 -4 0
1304 444 1 4.1499999999999998e-01 3.6189489550609761e+00 3.0282864396346425e+00 7.0812155954002343e+00 7 -4 0
1949 444 1 4.1499999999999998e-01 3.0101348997503945e+00 6.7037496250259443e-01 7.1968727531661498e+00 -2 0 0
1177 444 2 -8.2999999999999996e-01 3.3122553546965374e+00 1.8043675602146259e+00 1.2497056252965645e+01 -3 2 0
591 444 1 4.1499999999999998e-01 3.7491787669573453e+00 3.8894326826009185e-01 1.5942276609760626e+01 -1 -2 0
1653 444 1 4.1499999999999998e-01 2.3781261686868662e+00 2.1248842791214537e+00 8.8063157024748904e+00 1 0 0
2343 444 1 4.1499999999999998e-01 3.5881835514470621e+00 3.2210903586592821e+00 1.4180070060442054e+01 -2 2 0
1178 444 1 4.1499999999999998e-01 3.2488457969239586e+00 2.0745388273138232e+00 1.1580967316132430e+01 -3 2 0
589 444 2 -8.2999999999999996e-01 3.2082776267981208e+00 7.8432011323982098e-01 1.6625895443588789e+01 -1 -2 0
2658 444 1 4.1499999999999998e-01 2.1373915961361756e+00 2.7847798100161163e+00 1.8944163403047334e+01 2 -1 0
590 444 1 4.1499999999999998e-01 3.7602882270802671e+00 1.4697980433058861e+00 1.7002241092816583e+01 -1 -2 0
2656 444 2 -8.2999999999999996e-01 2.9524212517695889e+00 3.0540909964645855e+00 1.9367756714879881e+01 2 -1 0
3052 444 4 0.0000000000000000e+00 3.4729999999999999e+00 6.1128000000000000e+00 0.0000000000000000e+00 0 0 0
3053 444 4 0.0000000000000000e+00 3.4709200000000000e+00 6.1155999999999997e+00 3.5893000000000002e+00 0 0 0
3056 444 4 0.0000000000000000e+00 3.4729999999999999e+00 4.2959500000000004e+00 1.8169999999999999e+00 0 0 0
3076 444 4 0.0000000000000000e+00 3.4729999999999999e+00 7.9297500000000003e+00 1.8169999999999999e+00 0 0 0
1305 444 1 4.1499999999999998e-01 3.3564210195637876e+00 4.5134460788622137e+00 6.9497829642530329e+00 7 -4 0
1936 444 2 -8.2999999999999996e-01 2.0683627790458208e+00 5.5523411225388877e+00 6.8449473709211901e+00 1 5 0
93 444 1 4.1499999999999998e-01 2.8783635045708635e+00 5.5802368592975693e+00 8.4423933925820602e+00 4 -2 0
704 444 1 4.1499999999999998e-01 3.7303979235210916e+00 6.1809093044932855e+00 1.2836233749881421e+01 -2 0 0
91 444 2 -8.2999999999999996e-01 3.0070392482012802e+00 5.3728863188280522e+00 9.3679635022303298e+00 4 -2 0
92 444 1 4.1499999999999998e-01 2.8310730039136338e+00 4.4340668231471190e+00 9.4302967278929799e+00 4 -2 0
1432 444 2 -8.2999999999999996e-01 2.1137696722944495e+00 5.5263753501828896e+00 1.1902035173992628e+01 -2 -4 0
1433 444 1 4.1499999999999998e-01 2.5026825535871171e+00 5.4707327130157788e+00 1.1029175778660351e+01 -2 -4 0
948 444 1 4.1499999999999998e-01 3.0251040309903585e+00 4.3787284640216315e+00 1.5716360179613021e+01 2 0 0
1447 444 2 -8.2999999999999996e-01 3.3707950365760757e+00 7.4283097551603472e+00 1.6740187493378716e+01 5 -6 0
946 444 2 -8.2999999999999996e-01 2.2416111540784809e+00 4.4121983662583508e+00 1.6265224306639642e+01 2 0 0
1449 444 1 4.1499999999999998e-01 2.6528781829971710e+00 6.9742513071178296e+00 1.6298986735295436e+01 5 -6 0
947 444 1 4.1499999999999998e-01 2.5765026899753791e+00 4.5231582962077361e+00 1.7155037584887424e+01 2 0 0
2084 444 1 4.1499999999999998e-01 3.1274852166903950e+00 6.1518382922276720e+00 1.9296412434277038e+01 -2 -1 0
1448 444 1 4.1499999999999998e-01 3.5844653298688414e+00 6.8699914642781534e+00 1.7487755167636859e+01 5 -6 0
2083 444 2 -8.2999999999999996e-01 3.7474705917973519e+00 5.8177238220464043e+00 1.8648169471094633e+01 -2 -1 0
3072 444 4 0.0000000000000000e+00 3.4729999999999999e+00 9.7467000000000006e+00 0.0000000000000000e+00 0 0 0
3073 444 4 0.0000000000000000e+00 3.4814900000000000e+00 9.7578999999999994e+00 3.5969899999999999e+00 0 0 0
3096 444 4 0.0000000000000000e+00 3.4729999999999999e+00 1.1563549999999999e+01 1.8169999999999999e+00 0 0 0
565 444 2 -8.2999999999999996e-01 3.1487969187686180e+00 9.8891365575593255e+00 7.4473496485094044e+00 0 2 0
567 444 1 4.1499999999999998e-01 2.5227474585283849e+00 1.0417213941752726e+01 6.9519426713073660e+00 0 2 0
2129 444 1 4.1499999999999998e-01 2.4183754547381340e+00 8.4390823843579046e+00 6.2629206285020418e+00 2 -3 0
566 444 1 4.1499999999999998e-01 2.7214893536349578e+00 9.7385739292306255e+00 8.2905405755677037e+00 0 2 0
2194 444 2 -8.2999999999999996e-01 2.4682925848071982e+00 9.7443394269671764e+00 1.0009207517936050e+01 2 -5 0
866 444 1 4.1499999999999998e-01 2.5390868020599693e+00 1.0532561212137704e+01 1.4073109284564607e+01 -3 -4 0
2962 444 2 -8.2999999999999996e-01 4.0015913250821757e+00 9.2820612537790428e+00 1.2956807654762940e+01 2 0 0
2195 444 1 4.1499999999999998e-01 3.1169060000909417e+00 9.5629248768759219e+00 1.0689370323661860e+01 2 -5 0
1878 444 1 4.1499999999999998e-01 4.0118838290776191e+00 1.1986333907829840e+01 1.4545884373290447e+01 3 -3 0
1540 444 2 -8.2999999999999996e-01 2.8510390661108724e+00 9.9970805438058434e+00 1.7680870988511796e+01 2 -3 0
153 444 1 4.1499999999999998e-01 3.4596026475380257e+00 1.1270469612822330e+01 1.6837633126907591e+01 3 -1 0
1542 444 1 4.1499999999999998e-01 2.9439348060581723e+00 9.9080071399681167e+00 1.8629379354132276e+01 2 -3 0
1541 444 1 4.1499999999999998e-01 3.0768087653552390e+00 9.1333939024443751e+00 1.7335465249955224e+01 2 -3 0
151 444 2 -8.2999999999999996e-01 4.0029475456246422e+00 1.1889208656576024e+01 1.6349606353956876e+01 3 -1 0
3114 444 4 0.0000000000000000e+00 3.4729999999999999e+00 1.5197450000000000e+01 1.8169999999999999e+00 0 0 0
3120 444 4 0.0000000000000000e+00 3.4846699999999999e+00 1.3369949999999999e+01 3.5945900000000002e+00 0 0 0
3121 444 4 0.0000000000000000e+00 3.4729999999999999e+00 1.3380500000000000e+01 0.0000000000000000e+00 0 0 0
1437 444 1 4.1499999999999998e-01 2.5744534055342472e+00 1.2478000449516589e+01 6.3264863144340495e+00 -4 -4 0
1523 444 1 4.1499999999999998e-01 2.3199146949477432e+00 1.5714093283953416e+01 7.5642395777397802e+00 2 3 0
1025 444 1 4.1499999999999998e-01 3.8137098671032286e+00 1.6171939489923389e+01 1.2302642720280579e+01 -1 -3 0
2046 444 1 4.1499999999999998e-01 3.4575004014983155e+00 1.4594644335753538e+01 9.3623450463197564e+00 6 2 0
1457 444 1 4.1499999999999998e-01 2.9587519208962010e+00 1.4059897127783488e+01 1.1379497800764820e+01 5 -3 0
1456 444 2 -8.2999999999999996e-01 2.7780348215474593e+00 1.3551567470401716e+01 1.0588818333473609e+01 5 -3 0
2044 444 2 -8.2999999999999996e-01 3.5212291533720337e+00 1.5250553001839148e+01 8.6681158093280217e+00 6 2 0
2229 444 1 4.1499999999999998e-01 3.9095401565182977e+00 1.3597176737645299e+01 1.3177941616123739e+01 1 1 0
2227 444 2 -8.2999999999999996e-01 4.0240317201030695e+00 1.4534146651920350e+01 1.3019162876785304e+01 1 1 0
732 444 1 4.1499999999999998e-01 2.7308156954473546e+00 1.4954050187462428e+01 1.7805043559368194e+01 3 3 0
152 444 1 4.1499999999999998e-01 4.0799302103655597e+00 1.2648528808600458e+01 1.6927307238016162e+01 3 -1 0
3110 444 4 0.0000000000000000e+00 3.4729999999999999e+00 1.7014299999999999e+01 0.0000000000000000e+00 0 0 0
3111 444 4 0.0000000000000000e+00 3.4709200000000000e+00 1.7017099999999999e+01 3.5893000000000002e+00 0 0 0
3134 444 4 0.0000000000000000e+00 3.4729999999999999e+00 1.8831250000000001e+01 1.8169999999999999e+00 0 0 0
2052 444 1 4.1499999999999998e-01 3.8831729014994552e+00 1.8452246372095271e+01 6.3503399650340491e+00 3 2 0
2886 444 1 4.1499999999999998e-01 3.2114272209517520e+00 1.9057369489129155e+01 1.4530554074472729e+01 -4 0 0
1021 444 2 -8.2999999999999996e-01 3.5192102657453463e+00 1.7039940043877127e+01 1.2026822372569798e+01 -1 -3 0
2798 444 1 4.1499999999999998e-01 2.6881932044437762e+00 1.9767403690337709e+01 9.3299544387216891e+00 2 0 0
1560 444 1 4.1499999999999998e-01 3.5316599579491390e+00 1.7092488711926517e+01 9.0323894618855114e+00 1 -3 0
1023 444 1 4.1499999999999998e-01 2.5750050002563567e+00 1.7034149593348801e+01 1.2183903744779187e+01 -1 -3 0
2884 444 2 -8.2999999999999996e-01 2.5418553670602924e+00 1.9286577778894650e+01 1.5175045268075500e+01 -4 0 0
1559 444 1 4.1499999999999998e-01 3.3141468087732426e+00 1.7548366208379637e+01 1.0459540047294015e+01 1 -3 0
2885 444 1 4.1499999999999998e-01 3.0292354488506090e+00 1.9684983294809829e+01 1.5896131606913684e+01 -4 0 0
1558 444 2 -8.2999999999999996e-01 3.2668929395711697e+00 1.7851052593040531e+01 9.5526884047893201e+00 1 -3 0
1284 444 1 4.1499999999999998e-01 3.1468491580526727e+00 1.6864506184359698e+01 1.9285739765362727e+01 -2 -2 0
1282 444 2 -8.2999999999999996e-01 2.5443687033252385e+00 1.7295505679918630e+01 1.9891948077635455e+01 -2 -2 0
1164 444 1 4.1499999999999998e-01 2.0883294437097391e+00 1.8491267828452195e+01 1.7962884270241961e+01 2 -1 0
3130 444 4 0.0000000000000000e+00 3.4729999999999999e+00 2.0648199999999999e+01 0.0000000000000000e+00 0 0 0
3131 444 4 0.0000000000000000e+00 3.4814900000000000e+00 2.0659400000000002e+01 3.5969899999999999e+00 0 0 0
3154 444 4 0.0000000000000000e+00 3.4729999999999999e+00 2.2465050000000002e+01 1.8169999999999999e+00 0 0 0
3178 444 4 0.0000000000000000e+00 3.4846699999999999e+00 2.4271450000000002e+01 3.5945900000000002e+00 0 0 0
3179 444 4 0.0000000000000000e+00 3.4729999999999999e+00 2.4282000000000000e+01 0.0000000000000000e+00 0 0 0
525 444 1 4.1499999999999998e-01 3.4140269295350514e+00 2.3289707979179674e+01 6.9789189526379882e+00 -1 -4 0
523 444 2 -8.2999999999999996e-01 2.8951223409582783e+00 2.3928612107348705e+01 6.4902761553065735e+00 -1 -4 0
2799 444 1 4.1499999999999998e-01 3.5901833981244224e+00 2.0962899954656525e+01 9.1083750041355334e+00 2 0 0
2797 444 2 -8.2999999999999996e-01 2.7103511630631600e+00 2.0721904690310190e+01 9.3982875936780168e+00 2 0 0
899 444 1 4.1499999999999998e-01 2.7736495937257537e+00 2.1411773515914863e+01 1.1861415741187720e+01 0 2 0
2109 444 1 4.1499999999999998e-01 2.1601842815241472e+00 2.3320606893742479e+01 1.4002160863131222e+01 1 -3 0
898 444 2 -8.2999999999999996e-01 3.7129358278106706e+00 2.1247195373148280e+01 1.1944405154286676e+01 0 2 0
2108 444 1 4.1499999999999998e-01 3.0007852106000978e+00 2.2087261023054108e+01 1.4255426016592850e+01 1 -3 0
2283 444 1 4.1499999999999998e-01 3.4859298788446571e+00 2.3531391329953397e+01 1.0176695848489935e+01 1 -1 0
2107 444 2 -8.2999999999999996e-01 2.2891141885253941e+00 2.2607841604579921e+01 1.4627920483833888e+01 1 -3 0
106 444 2 -8.2999999999999996e-01 2.0463944222140351e+00 2.1764765383795119e+01 1.9091344051101014e+01 2 -3 0
107 444 1 4.1499999999999998e-01 2.1771807185770742e+00 2.1151772362783376e+01 1.9814784413630985e+01 2 -3 0
2156 444 1 4.1499999999999998e-01 2.9251890127226496e+00 2.3148097262809607e+01 1.8267246886793348e+01 6 2 0
2155 444 2 -8.2999999999999996e-01 3.3973966198027878e+00 2.3780207563393695e+01 1.7725316921889590e+01 6 2 0
1494 444 1 4.1499999999999998e-01 3.8091305578523564e+00 2.0926371158014497e+01 1.7445457898146486e+01 3 2 0
3168 444 4 0.0000000000000000e+00 3.4729999999999999e+00 2.7915800000000001e+01 0.0000000000000000e+00 0 0 0
3169 444 4 0.0000000000000000e+00 3.4709200000000000e+00 2.7918600000000001e+01 3.5893000000000002e+00 0 0 0
3172 444 4 0.0000000000000000e+00 3.4729999999999999e+00 2.6098949999999999e+01 1.8169999999999999e+00 0 0 0
2355 444 1 4.1499999999999998e-01 3.0698153411024420e+00 2.5634235214852165e+01 7.3447339048325926e+00 0 3 0
1613 444 1 4.1499999999999998e-01 2.0867184809183748e+00 2.8232367159327943e+01 6.5487813014484013e+00 6 -4 0
2353 444 2 -8.2999999999999996e-01 2.9211660974417408e+00 2.6311509426260269e+01 8.0046088178529065e+00 0 3 0
2011 444 2 -8.2999999999999996e-01 3.0474620222770423e+00 2.6172577297129884e+01 1.1015509461326177e+01 0 -2 0
2012 444 1 4.1499999999999998e-01 2.7144363137257392e+00 2.7018898420694445e+01 1.1313950974336791e+01 0 -2 0
855 444 1 4.1499999999999998e-01 3.2125914622868659e+00 2.4956461086183428e+01 1.4977818436233759e+01 -2 -1 0
2013 444 1 4.1499999999999998e-01 3.1060178197115009e+00 2.6259696565514279e+01 1.0064082252156867e+01 0 -2 0
853 444 2 -8.2999999999999996e-01 3.6373055491618058e+00 2.5425720314960657e+01 1.5695903070291493e+01 -2 -1 0
627 444 1 4.1499999999999998e-01 3.0680657729197547e+00 2.7064193901823810e+01 1.5684274493777597e+01 6 0 0
625 444 2 -8.2999999999999996e-01 2.6332492517452866e+00 2.7909317064582932e+01 1.5797999048164593e+01 6 0 0
854 444 1 4.1499999999999998e-01 3.5557251145196238e+00 2.4838775389398826e+01 1.6447615876019992e+01 -2 -1 0
1142 444 1 4.1499999999999998e-01 3.5014452505209039e+00 2.5810883865665659e+01 1.9050910126312750e+01 1 -1 0
3188 444 4 0.0000000000000000e+00 3.4729999999999999e+00 3.1549700000000001e+01 0.0000000000000000e+00 0 0 0
3189 444 4 0.0000000000000000e+00 3.4814900000000000e+00 3.1560900000000000e+01 3.5969899999999999e+00 0 0 0
3192 444 4 0.0000000000000000e+00 3.4729999999999999e+00 2.9732749999999999e+01 1.8169999999999999e+00 0 0 0
2894 444 1 4.1499999999999998e-01 3.6145804741563343e+00 3.0946734680989376e+01 7.1867163368155254e+00 2 -1 0
2893 444 2 -8.2999999999999996e-01 3.5576422291682972e+00 3.1845226629663944e+01 6.8615972324171359e+00 2 -1 0
1612 444 2 -8.2999999999999996e-01 2.5173661331256274e+00 2.9084560402680012e+01 6.6161701828356811e+00 6 -4 0
1614 444 1 4.1499999999999998e-01 3.4464682157042188e+00 2.8876767700311788e+01 6.7152872718887160e+00 6 -4 0
1380 444 1 4.1499999999999998e-01 3.7926356201805351e+00 3.0168031298198844e+01 1.4023433205749553e+01 -5 1 0
2827 444 2 -8.2999999999999996e-01 2.2306014061275148e+00 3.1668884217778771e+01 1.1731486594778385e+01 -2 0 0
1874 444 1 4.1499999999999998e-01 2.4232707387740176e+00 2.9885313946598018e+01 9.5206189787235633e+00 0 -1 0
2774 444 1 4.1499999999999998e-01 2.2438275674619916e+00 2.9108758124050556e+01 1.2646275007025178e+01 5 3 0
1378 444 2 -8.2999999999999996e-01 2.8868304679477497e+00 3.0068869212295297e+01 1.4316547043082167e+01 -5 1 0
1379 444 1 4.1499999999999998e-01 2.9122716984431398e+00 2.9335042689450997e+01 1.4930618065877233e+01 -5 1 0
2828 444 1 4.1499999999999998e-01 2.3430875592540441e+00 3.1609229956322512e+01 1.2680180563175846e+01 -2 0 0