LAMMPS data file via write_data, version 11 Aug 2017, timestep = 1000000

3549 atoms
12 atom types
2024 bonds
5 bond types
1018 angles
5 angle types
12 dihedrals
4 dihedral types
9 impropers
1 improper types

0.0000000000000000e+00 3.2704500000000003e+01 xlo xhi
0.0000000000000000e+00 3.2704500000000003e+01 ylo yhi
0.0000000000000000e+00 8.0000000000000000e+01 zlo zhi

Masses

1 1.0079
2 15.9994
3 39.0983
4 63.546
5 12.011
6 15.9994
7 1.0079
8 12.011
9 15.9994
10 15.9994
11 15.9994
12 1.0079

Bond Coeffs # harmonic

1 450 0.9572
2 570 1.229
3 450 1.364
4 570 1.229
5 553 0.945

Angle Coeffs # harmonic

1 100 123.32
2 85 124
3 55 104.52
4 35 113
5 100 123.32

Dihedral Coeffs # charmm

1 0.922 1 180 0
2 3.741 2 0 0
3 0.922 1 0 0
4 3.741 2 180 0

Improper Coeffs # umbrella

1 21 0

Atoms # full

3049 444 4 0.0000000000000000e+00 1.6616599999999999e+00 6.6271999999999998e-01 3.5789100000000000e+00 0 0 0
3051 444 4 0.0000000000000000e+00 1.6560500000000000e+00 2.4790000000000001e+00 1.8169999999999999e+00 0 0 0
3060 444 4 0.0000000000000000e+00 1.6560500000000000e+00 6.6205000000000003e-01 0.0000000000000000e+00 0 0 0
1581 444 1 4.1499999999999998e-01 1.3967170308170491e+00 1.0292968992390414e+00 6.5752869541871117e+00 2 1 0
1653 444 1 4.1499999999999998e-01 5.8180618498678827e-01 3.3334993141383502e+00 6.8831343961094111e+00 -1 -1 0
1651 444 2 -8.2999999999999996e-01 4.5976481689674742e-01 2.3842075100806039e+00 6.8696102084801218e+00 -1 -1 0
1652 444 1 4.1499999999999998e-01 2.3554002155808859e-01 2.1581871113215789e+00 7.7723116671060950e+00 -1 -1 0
1579 444 2 -8.2999999999999996e-01 1.9888899931340978e+00 3.0978144972766875e-01 6.3565160022910661e+00 2 1 0
2596 444 2 -8.2999999999999996e-01 2.5291380694040788e-01 1.0926968100189405e+00 1.5000526434069585e+01 -1 1 0
522 444 1 4.1499999999999998e-01 9.4733799581642930e-01 1.7070152862016759e+00 1.1798347080338749e+01 -2 4 0
728 444 1 4.1499999999999998e-01 1.0969875084765024e+00 6.0662756252902983e-01 9.2035245691063725e+00 -3 0 0
2597 444 1 4.1499999999999998e-01 8.4728889082076220e-01 1.2368549315149227e+00 1.5736847673170121e+01 -1 1 0
520 444 2 -8.2999999999999996e-01 1.8975350658171086e+00 1.7490675162011917e+00 1.1690689077518780e+01 -2 4 0
2598 444 1 4.1499999999999998e-01 2.2177772304990151e-01 1.4130483616362280e-01 1.4899947926675376e+01 -1 1 0
2447 444 1 4.1499999999999998e-01 1.5534270016528142e+00 3.1490737895811876e+00 1.6736957475757301e+01 -2 -2 0
2446 444 2 -8.2999999999999996e-01 1.4880344433273904e+00 2.6975726717038060e+00 1.7578445742152052e+01 -2 -2 0
796 444 2 -8.2999999999999996e-01 2.2977232075632353e-01 8.5158891482896804e-01 1.9120143016706290e+01 2 -3 0
798 444 1 4.1499999999999998e-01 6.8487667923130247e-01 1.5735606638008752e+00 1.8686704767730028e+01 2 -3 0
797 444 1 4.1499999999999998e-01 9.2747452779223305e-01 2.5099093139476436e-01 1.9382298662002498e+01 2 -3 0
3066 444 4 0.0000000000000000e+00 1.6560500000000000e+00 4.2959500000000004e+00 0.0000000000000000e+00 0 0 0
3067 444 4 0.0000000000000000e+00 1.6598999999999999e+00 4.2963500000000003e+00 3.5730900000000001e+00 0 0 0
3069 444 4 0.0000000000000000e+00 1.6560500000000000e+00 6.1128000000000000e+00 1.8169999999999999e+00 0 0 0
3086 444 4 0.0000000000000000e+00 1.6560500000000000e+00 7.9297500000000003e+00 0.0000000000000000e+00 0 0 0
3087 444 4 0.0000000000000000e+00 1.6579699999999999e+00 7.9270899999999997e+00 3.5731299999999999e+00 0 0 0
1782 444 1 4.1499999999999998e-01 6.5882972922245420e-01 7.9407790991164022e+00 7.7651591777318503e+00 -2 2 0
1780 444 2 -8.2999999999999996e-01 8.9802134018935298e-01 7.4842101650944990e+00 6.9585833005963460e+00 -2 2 0
373 444 2 -8.2999999999999996e-01 1.8258564223204121e+00 4.8562000641262104e+00 6.8372634470628428e+00 0 -8 0
375 444 1 4.1499999999999998e-01 1.5754362395885895e+00 5.7666710707732287e+00 6.6805321709998964e+00 0 -8 0
1781 444 1 4.1499999999999998e-01 2.0189269197715889e-01 7.7077653555745869e+00 6.3407967383870041e+00 -2 2 0
2546 444 1 4.1499999999999998e-01 1.4658938660596659e+00 4.8987048554712596e+00 1.0828839707691413e+01 -2 3 0
2545 444 2 -8.2999999999999996e-01 1.0277753853703893e+00 5.0001843603879035e+00 9.9838622271615503e+00 -2 3 0
2547 444 1 4.1499999999999998e-01 1.5953453866837608e+00 5.5908328976568606e+00 9.4886542523999715e+00 -2 3 0
208 444 2 -8.2999999999999996e-01 1.7661485145219740e+00 4.3211291060536716e+00 1.5058675098512223e+01 2 1 0
209 444 1 4.1499999999999998e-01 1.9382703797746574e+00 4.2495914448450272e+00 1.4119798578774457e+01 2 1 0
2416 444 2 -8.2999999999999996e-01 1.7825062195736043e+00 7.1327721092383998e+00 1.2353166943655161e+01 3 -1 0
1361 444 1 4.1499999999999998e-01 6.9016305543880371e-02 4.5406755197230915e+00 1.5248466682731729e+01 -3 4 0
900 444 1 4.1499999999999998e-01 3.9986892834880178e-01 8.1457373839743834e+00 1.2482730837838526e+01 5 -4 0
21 444 1 4.1499999999999998e-01 3.7444764325052499e-01 6.5135459008431384e+00 1.8166475465364726e+01 1 0 0
16 444 2 -8.2999999999999996e-01 1.2359264013655376e+00 6.9305766765064982e+00 1.8153340131574460e+01 1 0 0
18 444 1 4.1499999999999998e-01 1.5961479060965502e+00 6.7102299393032485e+00 1.7294317214476788e+01 1 0 0
3089 444 4 0.0000000000000000e+00 1.6560500000000000e+00 9.7467000000000006e+00 1.8169999999999999e+00 0 0 0
3106 444 4 0.0000000000000000e+00 1.6616599999999999e+00 1.1564220000000001e+01 3.5789100000000000e+00 0 0 0
3117 444 4 0.0000000000000000e+00 1.6560500000000000e+00 1.1563549999999999e+01 0.0000000000000000e+00 0 0 0
2389 444 2 -8.2999999999999996e-01 2.5545244336896988e-01 1.1920441987699256e+01 1.0075504589868453e+01 0 2 0
2281 444 2 -8.2999999999999996e-01 1.7982593806549787e+00 9.6500033642505496e+00 9.9601966559420134e+00 0 -1 0
2283 444 1 4.1499999999999998e-01 1.1423767243851179e+00 9.0979315567186827e+00 9.5344423727758176e+00 0 -1 0
2865 444 1 4.1499999999999998e-01 1.8478535426089671e+00 9.7492996189660648e+00 1.4948187191480043e+01 -1 -1 0
2864 444 1 4.1499999999999998e-01 1.9051828816840832e+00 8.9377688304904979e+00 1.3671462268326326e+01 -1 -1 0
2282 444 1 4.1499999999999998e-01 1.3638316327801185e+00 1.0495497142181964e+01 1.0072646274888845e+01 0 -1 0
73 444 2 -8.2999999999999996e-01 1.8791768218103269e+00 1.2135051215723713e+01 1.5175235598172252e+01 0 -1 0
75 444 1 4.1499999999999998e-01 9.5165610964869218e-01 1.2068262735856397e+01 1.5402121198359151e+01 0 -1 0
1578 444 1 4.1499999999999998e-01 1.6930786175069187e-01 8.3675324881976429e+00 1.7901301707415005e+01 0 -1 0
917 444 1 4.1499999999999998e-01 8.4763578167100606e-01 9.8477505941295771e+00 1.8756868408316159e+01 -5 0 0
916 444 2 -8.2999999999999996e-01 1.6984758579203463e+00 9.8720485189661584e+00 1.9194719430160731e+01 -5 0 0
3108 444 4 0.0000000000000000e+00 1.6560500000000000e+00 1.3380500000000000e+01 1.8169999999999999e+00 0 0 0
3123 444 4 0.0000000000000000e+00 1.6560500000000000e+00 1.5197450000000000e+01 0.0000000000000000e+00 0 0 0
3124 444 4 0.0000000000000000e+00 1.6598999999999999e+00 1.5197850000000001e+01 3.5730900000000001e+00 0 0 0
1170 444 1 4.1499999999999998e-01 1.5605762340060663e+00 1.2916455103690788e+01 7.1773851297746676e+00 -4 -2 0
2044 444 2 -8.2999999999999996e-01 4.8981221726189850e-01 1.6032571594545839e+01 7.5764932388006576e+00 0 -1 0
2045 444 1 4.1499999999999998e-01 1.3084987802118733e+00 1.5872868353771302e+01 7.1069407213326929e+00 0 -1 0
693 444 1 4.1499999999999998e-01 6.3360681301527763e-02 1.4313078506230768e+01 7.0201120421432535e+00 -5 -6 0
1498 444 2 -8.2999999999999996e-01 1.9193814334611878e+00 1.2785536835723290e+01 1.2338378993372018e+01 -4 1 0
1378 444 2 -8.2999999999999996e-01 1.2287708041881227e+00 1.5748668545030744e+01 1.2757120313788274e+01 0 -3 0
1525 444 2 -8.2999999999999996e-01 8.8979985858250521e-01 1.4916778337753547e+01 1.5552667054058444e+01 0 -2 0
1500 444 1 4.1499999999999998e-01 1.1448741143852417e+00 1.2327327050535928e+01 1.2012166940126232e+01 -4 1 0
1379 444 1 4.1499999999999998e-01 1.4710283622837106e+00 1.4970806506298873e+01 1.2254652292942129e+01 0 -3 0
2391 444 1 4.1499999999999998e-01 4.7350692951995138e-01 1.2852233529279989e+01 1.0054316135714553e+01 0 2 0
1380 444 1 4.1499999999999998e-01 3.8086322522361360e-01 1.6011298556336254e+01 1.2398915519139305e+01 0 -3 0
1527 444 1 4.1499999999999998e-01 1.0588699084614204e+00 1.5140903545310518e+01 1.4637563194442544e+01 0 -2 0
74 444 1 4.1499999999999998e-01 1.8829474804835757e+00 1.2369629692622382e+01 1.4247231608068269e+01 0 -1 0
2027 444 1 4.1499999999999998e-01 1.4788801258246473e+00 1.3069778304988576e+01 1.8023348316841467e+01 -2 -1 0
2028 444 1 4.1499999999999998e-01 6.2043977554680130e-01 1.3587263406567681e+01 1.6888806582507105e+01 -2 -1 0
1707 444 1 4.1499999999999998e-01 1.9536424762460143e+00 1.4323201210953886e+01 1.9633642699181703e+01 0 -2 0
2026 444 2 -8.2999999999999996e-01 6.8436092210121424e-01 1.3572489534583166e+01 1.7843756160675650e+01 -2 -1 0
794 444 1 4.1499999999999998e-01 2.0099184082178237e-01 1.4919006377173341e+01 1.9225610714719444e+01 5 4 0
3126 444 4 0.0000000000000000e+00 1.6560500000000000e+00 1.7014299999999999e+01 1.8169999999999999e+00 0 0 0
3143 444 4 0.0000000000000000e+00 1.6560500000000000e+00 1.8831250000000001e+01 0.0000000000000000e+00 0 0 0
3144 444 4 0.0000000000000000e+00 1.6579699999999999e+00 1.8828589999999998e+01 3.5731299999999999e+00 0 0 0
2517 444 1 4.1499999999999998e-01 1.6558488899733215e+00 1.8349259901850779e+01 6.7351356832085862e+00 -4 -1 0
526 444 2 -8.2999999999999996e-01 2.4174322291291320e-01 1.9242108519240769e+01 6.7762733521921330e+00 -5 -4 0
528 444 1 4.1499999999999998e-01 5.9357411077511524e-01 2.0130485862261487e+01 6.7194169311768839e+00 -5 -4 0
2046 444 1 4.1499999999999998e-01 1.4823210924004129e-01 1.6841324823218766e+01 7.1950831063618992e+00 0 -1 0
2187 444 1 4.1499999999999998e-01 7.6351252617379461e-01 1.8348840345444952e+01 1.4321153804117010e+01 -2 3 0
2748 444 1 4.1499999999999998e-01 1.2813469369522008e+00 1.7837298248917318e+01 8.9174475728003326e+00 0 -1 0
780 444 1 4.1499999999999998e-01 1.2237133425496427e+00 1.9462821819869664e+01 1.0552629395483766e+01 1 -1 0
2746 444 2 -8.2999999999999996e-01 1.8247212237785793e+00 1.8242707973826160e+01 9.5931840424209334e+00 0 -1 0
778 444 2 -8.2999999999999996e-01 1.1415152793687795e+00 2.0364920035964641e+01 1.0861976274022625e+01 1 -1 0
929 444 1 4.1499999999999998e-01 1.1215703229070193e+00 1.8062063423977957e+01 1.9690925227928069e+01 -4 -1 0
1038 444 1 4.1499999999999998e-01 3.3620529467789262e-01 1.7529313360913950e+01 1.7922129746232304e+01 4 1 0
417 444 1 4.1499999999999998e-01 1.6678957285420377e+00 1.9264783870723210e+01 1.7975467626781302e+01 -1 -1 0
3146 444 4 0.0000000000000000e+00 1.6560500000000000e+00 2.0648199999999999e+01 1.8169999999999999e+00 0 0 0
3163 444 4 0.0000000000000000e+00 1.6616599999999999e+00 2.2465720000000001e+01 3.5789100000000000e+00 0 0 0
3165 444 4 0.0000000000000000e+00 1.6560500000000000e+00 2.4282000000000000e+01 1.8169999999999999e+00 0 0 0
3174 444 4 0.0000000000000000e+00 1.6560500000000000e+00 2.2465050000000002e+01 0.0000000000000000e+00 0 0 0
886 444 2 -8.2999999999999996e-01 5.2443179341124169e-01 2.4232262023754529e+01 6.3915909042916814e+00 -1 -3 0
316 444 2 -8.2999999999999996e-01 1.1920073509742997e+00 2.1628112250468501e+01 6.8203336458267030e+00 1 0 0
317 444 1 4.1499999999999998e-01 7.8624375893440301e-01 2.2442920808642782e+01 6.5242341921348430e+00 1 0 0
318 444 1 4.1499999999999998e-01 1.7424890059599483e+00 2.1888670246046903e+01 7.5587856895484649e+00 1 0 0
779 444 1 4.1499999999999998e-01 1.5084295105602095e+00 2.0895500614600778e+01 1.0154805605230395e+01 1 -1 0
749 444 1 4.1499999999999998e-01 2.9458265415111690e-01 2.2043103222572199e+01 1.2818423439394177e+01 -3 1 0
50 444 1 4.1499999999999998e-01 9.0839423688301002e-02 2.4068309968746288e+01 1.0008964454650929e+01 5 -3 0
1185 444 1 4.1499999999999998e-01 1.7798887302831854e+00 2.2211926583582024e+01 1.5548677968864004e+01 2 -3 0
71 444 1 4.1499999999999998e-01 1.3951642925882375e+00 2.2905549372130903e+01 9.2979498015295672e+00 0 0 0
1064 444 1 4.1499999999999998e-01 1.4761743225064077e+00 2.4415772740436314e+01 1.8892739565105511e+01 2 -1 0
2812 444 2 -8.2999999999999996e-01 9.2921570308100943e-01 2.1032370942192308e+01 1.8646339240929105e+01 1 1 0
2813 444 1 4.1499999999999998e-01 1.5599512078472093e+00 2.1522219888435963e+01 1.9174025350384056e+01 1 1 0
2814 444 1 4.1499999999999998e-01 9.6368642677205607e-01 2.1447440186196495e+01 1.7784503303064103e+01 1 1 0
1183 444 2 -8.2999999999999996e-01 1.4180929074252970e+00 2.2431107913565668e+01 1.6407336938656588e+01 2 -3 0
3180 444 4 0.0000000000000000e+00 1.6560500000000000e+00 2.6098949999999999e+01 0.0000000000000000e+00 0 0 0
3181 444 4 0.0000000000000000e+00 1.6598999999999999e+00 2.6099350000000001e+01 3.5730900000000001e+00 0 0 0
3183 444 4 0.0000000000000000e+00 1.6560500000000000e+00 2.7915800000000001e+01 1.8169999999999999e+00 0 0 0
888 444 1 4.1499999999999998e-01 1.3667397408083645e-01 2.4898557156628701e+01 6.9589766249296616e+00 -1 -3 0
2704 444 2 -8.2999999999999996e-01 1.4576954523046890e+00 2.7405971452306567e+01 6.6133141839988401e+00 -2 -3 0
2706 444 1 4.1499999999999998e-01 6.4643534170078876e-01 2.6910060542503427e+01 6.7235938620861928e+00 -2 -3 0
887 444 1 4.1499999999999998e-01 1.3327173848434897e+00 2.4631676942305145e+01 6.0700726124998567e+00 -1 -3 0
2705 444 1 4.1499999999999998e-01 1.1707745336507747e+00 2.8279019704366704e+01 6.3455531138737591e+00 -2 -3 0
2444 444 1 4.1499999999999998e-01 1.6413590435175482e-01 2.5666316250591247e+01 1.1258669503709836e+01 1 3 0
2445 444 1 4.1499999999999998e-01 1.6134848869108682e+00 2.5992071306185551e+01 1.0966835629119091e+01 1 3 0
2443 444 2 -8.2999999999999996e-01 9.1140482035938097e-01 2.5385986500022280e+01 1.0730240302747735e+01 1 3 0
392 444 1 4.1499999999999998e-01 1.9845841260830965e+00 2.7540889686198788e+01 1.2951669288155490e+01 -1 0 0
391 444 2 -8.2999999999999996e-01 2.0029012344943005e+00 2.7645365222180878e+01 1.3902974385238634e+01 -1 0 0
695 444 1 4.1499999999999998e-01 6.7952101974993773e-01 2.8417637992740417e+01 1.4589653900742464e+01 3 1 0
302 444 1 4.1499999999999998e-01 1.5449772568148152e+00 2.6320184528795977e+01 1.5581324638226523e+01 -3 3 0
303 444 1 4.1499999999999998e-01 1.2741811331606609e-01 2.6170439217995714e+01 1.6091224311423648e+01 -3 3 0
301 444 2 -8.2999999999999996e-01 1.0418587918456661e+00 2.6094538637744439e+01 1.6363749227759310e+01 -3 3 0
1065 444 1 4.1499999999999998e-01 1.6939843699422843e+00 2.5102799900851693e+01 1.7561406445280877e+01 2 -1 0
1463 444 1 4.1499999999999998e-01 1.9127139169875320e+00 2.7507999551307513e+01 1.9035116234832451e+01 1 -1 0
1464 444 1 4.1499999999999998e-01 1.8797092082446218e+00 2.7092005973179901e+01 1.7579865202780727e+01 1 -1 0
3200 444 4 0.0000000000000000e+00 1.6560500000000000e+00 2.9732749999999999e+01 0.0000000000000000e+00 0 0 0
3201 444 4 0.0000000000000000e+00 1.6579699999999999e+00 2.9730090000000001e+01 3.5731299999999999e+00 0 0 0
3203 444 4 0.0000000000000000e+00 1.6560500000000000e+00 3.1549700000000001e+01 1.8169999999999999e+00 0 0 0
1814 444 1 4.1499999999999998e-01 5.7799895362340781e-01 3.2091058889887179e+01 6.6564395838210411e+00 -3 -1 0
1524 444 1 4.1499999999999998e-01 1.9793639345037486e+00 3.1089267116331992e+01 6.4607564412185621e+00 -3 1 0
1599 444 1 4.1499999999999998e-01 1.2639859414783918e+00 3.0069859076109342e+01 8.6078463241623435e+00 5 -2 0
578 444 1 4.1499999999999998e-01 1.4246214004367259e+00 3.0604342534249135e+01 1.1714964035409357e+01 2 -7 0
1597 444 2 -8.2999999999999996e-01 4.2358621931212825e-01 3.0345573987342682e+01 8.9738264994753223e+00 5 -2 0
2452 444 2 -8.2999999999999996e-01 1.4847885123221760e+00 3.1036931734598951e+01 1.5058512632579289e+01 1 2 0
729 444 1 4.1499999999999998e-01 1.2393515125781451e+00 3.1807451883492146e+01 9.3064204958240477e+00 -3 -1 0
2454 444 1 4.1499999999999998e-01 9.3400210408692419e-01 3.0270994506827098e+01 1.4896628854478744e+01 1 2 0
577 444 2 -8.2999999999999996e-01 1.8270547032647122e+00 2.9941136980822360e+01 1.2275711540280243e+01 2 -7 0
2453 444 1 4.1499999999999998e-01 1.6758390408923249e+00 3.1001366996006759e+01 1.5995778210539669e+01 1 2 0
727 444 2 -8.2999999999999996e-01 1.6847088958904861e+00 3.2626546093307844e+01 9.5231565627322219e+00 -3 -1 0
1292 444 1 4.1499999999999998e-01 1.7105639134128510e+00 2.9593151793294794e+01 1.7903308276923052e+01 -1 3 0
1291 444 2 -8.2999999999999996e-01 2.0410698674543744e+00 3.0401313547635446e+01 1.7511041588512953e+01 -1 3 0
3050 444 4 0.0000000000000000e+00 3.4729999999999999e+00 6.6205000000000003e-01 1.8169999999999999e+00 0 0 0
3074 444 4 0.0000000000000000e+00 3.4747100000000000e+00 2.4727899999999998e+00 3.5785600000000000e+00 0 0 0
3075 444 4 0.0000000000000000e+00 3.4729999999999999e+00 2.4790000000000001e+00 0.0000000000000000e+00 0 0 0
1580 444 1 4.1499999999999998e-01 2.8553890477114203e+00 7.1482759320684042e-01 6.3197868200062999e+00 2 1 0
2451 444 1 4.1499999999999998e-01 3.6175694583476710e+00 2.4704792708087338e+00 7.7131006868422967e+00 1 1 0
2449 444 2 -8.2999999999999996e-01 3.9747862036349142e+00 2.0606417402311976e+00 6.9252800644278789e+00 1 1 0
852 444 1 4.1499999999999998e-01 2.9375189376535484e+00 1.2887845729004382e-01 1.3970200866870814e+01 -3 3 0
2878 444 2 -8.2999999999999996e-01 3.4795114743109958e+00 3.4345688313291145e+00 9.2870190393377037e+00 2 2 0
848 444 2 -8.2999999999999996e-01 3.3987234085332112e+00 9.6058929226851553e-01 1.3861667209799691e+01 -3 3 0
2879 444 1 4.1499999999999998e-01 3.6499078777870180e+00 3.8626535136201712e+00 1.0126030772780174e+01 2 2 0
2880 444 1 4.1499999999999998e-01 2.9255490893311031e+00 4.0527309692275812e+00 8.8103292491091612e+00 2 2 0
59 444 1 4.1499999999999998e-01 2.1544678733345131e+00 3.3475734941550859e+00 1.2173833709284141e+01 -2 -2 0
849 444 1 4.1499999999999998e-01 2.7752166982213113e+00 1.5224883809569991e+00 1.3401514086819329e+01 -3 3 0
521 444 1 4.1499999999999998e-01 2.1042414176345021e+00 1.0257514591498791e+00 1.1098811534601692e+01 -2 4 0
1663 444 2 -8.2999999999999996e-01 3.5190705869710110e+00 3.7613805749897753e+00 1.8970225799446183e+01 -1 3 0
2448 444 1 4.1499999999999998e-01 2.1427628869896291e+00 3.1241948986622612e+00 1.8131217035226044e+01 -2 -2 0
1664 444 1 4.1499999999999998e-01 3.6530567259180677e+00 3.4222413019778029e+00 1.9855247947071806e+01 -1 3 0
3064 444 4 0.0000000000000000e+00 3.4729999999999999e+00 6.1128000000000000e+00 0.0000000000000000e+00 0 0 0
3065 444 4 0.0000000000000000e+00 3.4736400000000001e+00 6.1126100000000001e+00 3.5785300000000002e+00 0 0 0
3068 444 4 0.0000000000000000e+00 3.4729999999999999e+00 4.2959500000000004e+00 1.8169999999999999e+00 0 0 0
3088 444 4 0.0000000000000000e+00 3.4729999999999999e+00 7.9297500000000003e+00 1.8169999999999999e+00 0 0 0
374 444 1 4.1499999999999998e-01 2.5870391456421991e+00 4.7162942640130563e+00 6.2740058463834671e+00 0 -8 0
142 444 2 -8.2999999999999996e-01 3.7412841656601685e+00 7.1560176387308942e+00 6.6522019176002054e+00 -1 0 0
144 444 1 4.1499999999999998e-01 2.8280273178959439e+00 7.3949662056880765e+00 6.4937784985340210e+00 -1 0 0
143 444 1 4.1499999999999998e-01 3.9503605581005430e+00 7.5540168995606498e+00 7.4972556188682757e+00 -1 0 0
580 444 2 -8.2999999999999996e-01 3.4474680650551401e+00 6.5990670722341127e+00 1.5592130520227537e+01 1 1 0
2341 444 2 -8.2999999999999996e-01 3.0536937007583451e+00 6.8785295192625364e+00 9.8859076616179600e+00 1 2 0
2418 444 1 4.1499999999999998e-01 2.0823025564755686e+00 7.1236757440208294e+00 1.1444171641232083e+01 3 -1 0
58 444 2 -8.2999999999999996e-01 2.4155010896444358e+00 4.2658876744131913e+00 1.2243063899851064e+01 -2 -2 0
582 444 1 4.1499999999999998e-01 3.3256478412420689e+00 7.4040787283245786e+00 1.5088793198990659e+01 1 1 0
210 444 1 4.1499999999999998e-01 2.3824226951786160e+00 4.9861113044240870e+00 1.5365656776983364e+01 2 1 0
2343 444 1 4.1499999999999998e-01 3.3019650319233267e+00 7.7906595145663182e+00 9.7355323695897251e+00 1 2 0
60 444 1 4.1499999999999998e-01 3.3688730118791197e+00 4.2513925330235987e+00 1.2158779981249767e+01 -2 -2 0
2342 444 1 4.1499999999999998e-01 3.8853739748375555e+00 6.4058763404411616e+00 9.9196656426472121e+00 1 2 0
2417 444 1 4.1499999999999998e-01 2.2125974752822266e+00 6.3780810259275498e+00 1.2755280779139076e+01 3 -1 0
1665 444 1 4.1499999999999998e-01 3.8855884087036472e+00 4.6453127910407410e+00 1.8993899872666290e+01 -1 3 0
3084 444 4 0.0000000000000000e+00 3.4729999999999999e+00 9.7467000000000006e+00 0.0000000000000000e+00 0 0 0
3085 444 4 0.0000000000000000e+00 3.4733100000000001e+00 9.7573200000000000e+00 3.5790199999999999e+00 0 0 0
3107 444 4 0.0000000000000000e+00 3.4729999999999999e+00 1.1563549999999999e+01 1.8169999999999999e+00 0 0 0
1934 444 1 4.1499999999999998e-01 2.9211123758897504e+00 1.1177482094427718e+01 6.7744066474429721e+00 -3 0 0
1933 444 2 -8.2999999999999996e-01 2.9427053528376454e+00 1.0220525846598928e+01 6.7752453545845706e+00 -3 0 0
1935 444 1 4.1499999999999998e-01 2.0493860814389029e+00 9.9601235504859744e+00 6.5507386377723442e+00 -3 0 0
1432 444 2 -8.2999999999999996e-01 3.9708538583303321e+00 1.0788569327788046e+01 1.1286606257532515e+01 -3 2 0
78 444 1 4.1499999999999998e-01 3.8659335203188117e+00 9.9508913932516734e+00 9.6612062098066147e+00 -1 -1 0
1683 444 1 4.1499999999999998e-01 3.8812325057984856e+00 9.5904616821447224e+00 1.3792065259649020e+01 -2 -4 0
1434 444 1 4.1499999999999998e-01 3.1113650453100568e+00 1.0370136531008056e+01 1.1237363400033443e+01 -3 2 0
1433 444 1 4.1499999999999998e-01 3.8588503635456215e+00 1.1621533959363138e+01 1.0828504711434363e+01 -3 2 0
2863 444 2 -8.2999999999999996e-01 2.4212433497922405e+00 9.1733926813247582e+00 1.4442432813566464e+01 -1 -1 0
77 444 1 4.1499999999999998e-01 3.7919375498259158e+00 9.7525316312075159e+00 8.1621820572799990e+00 -1 -1 0
141 444 1 4.1499999999999998e-01 2.9137097061856547e+00 1.1771090150511633e+01 1.6911801242043826e+01 2 1 0
139 444 2 -8.2999999999999996e-01 2.8135319127169476e+00 1.1969804373781514e+01 1.7842773495007911e+01 2 1 0
918 444 1 4.1499999999999998e-01 2.1776865828686360e+00 1.0570803541379581e+01 1.8749374702076103e+01 -5 0 0
3125 444 4 0.0000000000000000e+00 3.4729999999999999e+00 1.5197450000000000e+01 1.8169999999999999e+00 0 0 0
3131 444 4 0.0000000000000000e+00 3.4747100000000000e+00 1.3374290000000000e+01 3.5785600000000000e+00 0 0 0
3132 444 4 0.0000000000000000e+00 3.4729999999999999e+00 1.3380500000000000e+01 0.0000000000000000e+00 0 0 0
1168 444 2 -8.2999999999999996e-01 2.5177170413428254e+00 1.2911119481978757e+01 7.1681692022060295e+00 -4 -2 0
1169 444 1 4.1499999999999998e-01 2.7625984307355025e+00 1.3836019960836694e+01 7.1394597171358392e+00 -4 -2 0
1639 444 2 -8.2999999999999996e-01 3.4513549083438630e+00 1.5540820261202514e+01 6.5216293039472273e+00 0 -3 0
1423 444 2 -8.2999999999999996e-01 3.8130233388989385e+00 1.4652642057379911e+01 1.5784550125167382e+01 -3 3 0
481 444 2 -8.2999999999999996e-01 3.2551980773838269e+00 1.2929887107361518e+01 9.8542559269441661e+00 2 0 0
1424 444 1 4.1499999999999998e-01 3.9404568452944519e+00 1.5585367979792659e+01 1.5957801926657337e+01 -3 3 0
1425 444 1 4.1499999999999998e-01 2.8830908351576019e+00 1.4572854159617876e+01 1.5572200546654337e+01 -3 3 0
1499 444 1 4.1499999999999998e-01 2.5520044864020948e+00 1.2727278167399783e+01 1.1622399719512536e+01 -4 1 0
482 444 1 4.1499999999999998e-01 3.7894491915684183e+00 1.3718766009864895e+01 9.7621805683681373e+00 2 0 0
483 444 1 4.1499999999999998e-01 2.8917398426612109e+00 1.2782918436446687e+01 8.9810259949443516e+00 2 0 0
1706 444 1 4.1499999999999998e-01 3.4080077656521537e+00 1.4549121648689777e+01 1.9279133069709932e+01 0 -2 0
140 444 1 4.1499999999999998e-01 3.5778017692498705e+00 1.2504561847984711e+01 1.8057618225574956e+01 2 1 0
3121 444 4 0.0000000000000000e+00 3.4729999999999999e+00 1.7014299999999999e+01 0.0000000000000000e+00 0 0 0
3122 444 4 0.0000000000000000e+00 3.4736400000000001e+00 1.7014109999999999e+01 3.5785300000000002e+00 0 0 0
3145 444 4 0.0000000000000000e+00 3.4729999999999999e+00 1.8831250000000001e+01 1.8169999999999999e+00 0 0 0
2516 444 1 4.1499999999999998e-01 3.1071049267932986e+00 1.8779564344259438e+01 6.7108608096573503e+00 -4 -1 0
2515 444 2 -8.2999999999999996e-01 2.5477869261140866e+00 1.8007800437138567e+01 6.7990412899144186e+00 -4 -1 0
1641 444 1 4.1499999999999998e-01 3.1338790847266558e+00 1.6443538844411389e+01 6.5448734177272510e+00 0 -3 0
2113 444 2 -8.2999999999999996e-01 3.7691684785260375e+00 2.0216954963289062e+01 6.8375704318341199e+00 2 5 0
2870 444 1 4.1499999999999998e-01 2.6243114578796884e+00 1.8482736332909528e+01 1.3627274349844688e+01 2 0 0
2747 444 1 4.1499999999999998e-01 2.5966981241216058e+00 1.8557998629778378e+01 9.1232089933928897e+00 0 -1 0
2871 444 1 4.1499999999999998e-01 3.0209016485887585e+00 1.8299156407726400e+01 1.5076726033911795e+01 2 0 0
569 444 1 4.1499999999999998e-01 2.3791011935982889e+00 1.7096245831880470e+01 1.2207046202524429e+01 -1 -2 0
2869 444 2 -8.2999999999999996e-01 2.3874201821762635e+00 1.8747192766867769e+01 1.4516193576983747e+01 2 0 0
570 444 1 4.1499999999999998e-01 2.9314793079656436e+00 1.8051195722708943e+01 1.1170299148484878e+01 -1 -2 0
568 444 2 -8.2999999999999996e-01 3.0374300049662719e+00 1.7779779201469157e+01 1.2082077319918060e+01 -1 -2 0
1803 444 1 4.1499999999999998e-01 2.3228900971884858e+00 2.0416073958161324e+01 1.4688896284127914e+01 1 -6 0
415 444 2 -8.2999999999999996e-01 2.1044148968686707e+00 1.8413000565873268e+01 1.7987638076189786e+01 -1 -1 0
2977 444 2 -8.2999999999999996e-01 3.8922820861503102e+00 1.7399804330146484e+01 1.6160529387842516e+01 1 0 0
2979 444 1 4.1499999999999998e-01 3.2271707637162002e+00 1.7648348315615142e+01 1.6802467635464847e+01 1 0 0
416 444 1 4.1499999999999998e-01 2.8691577568195648e+00 1.8543237637471943e+01 1.8548386298876036e+01 -1 -1 0
3141 444 4 0.0000000000000000e+00 3.4729999999999999e+00 2.0648199999999999e+01 0.0000000000000000e+00 0 0 0
3142 444 4 0.0000000000000000e+00 3.4733100000000001e+00 2.0658819999999999e+01 3.5790199999999999e+00 0 0 0
3164 444 4 0.0000000000000000e+00 3.4729999999999999e+00 2.2465050000000002e+01 1.8169999999999999e+00 0 0 0
3188 444 4 0.0000000000000000e+00 3.4747100000000000e+00 2.4275790000000001e+01 3.5785600000000000e+00 0 0 0
3189 444 4 0.0000000000000000e+00 3.4729999999999999e+00 2.4282000000000000e+01 0.0000000000000000e+00 0 0 0
2114 444 1 4.1499999999999998e-01 3.1008483094167021e+00 2.0882171222240096e+01 6.6730484751804298e+00 2 5 0
2052 444 1 4.1499999999999998e-01 3.3842202057233144e+00 2.2966378652883986e+01 7.1015802986013572e+00 2 -2 0
1802 444 1 4.1499999999999998e-01 2.7530501432234580e+00 2.1305188685169199e+01 1.3541580824028857e+01 1 -6 0
1801 444 2 -8.2999999999999996e-01 2.2868840444051148e+00 2.1320474588345625e+01 1.4377456072838239e+01 1 -6 0
2287 444 2 -8.2999999999999996e-01 3.9390515164951712e+00 2.4467432092750595e+01 1.0185418894614942e+01 -2 2 0
72 444 1 4.1499999999999998e-01 2.8602673862397174e+00 2.3215283157751546e+01 9.5202854912091937e+00 0 0 0
70 444 2 -8.2999999999999996e-01 2.2749403174662839e+00 2.2623611893618531e+01 9.0474755387637380e+00 0 0 0
123 444 1 4.1499999999999998e-01 3.5233446446430792e+00 2.4252519030186804e+01 1.3419068054726141e+01 0 2 0
167 444 1 4.1499999999999998e-01 4.0258656178482815e+00 2.1835712489699784e+01 9.5708043415481541e+00 3 -2 0
1458 444 1 4.1499999999999998e-01 3.5804345287336581e+00 2.2338317978306126e+01 1.9879356407234265e+01 0 -2 0
1184 444 1 4.1499999999999998e-01 2.0547688182788924e+00 2.3035531968235198e+01 1.6788843427969642e+01 2 -3 0
3178 444 4 0.0000000000000000e+00 3.4729999999999999e+00 2.7915800000000001e+01 0.0000000000000000e+00 0 0 0
3179 444 4 0.0000000000000000e+00 3.4736400000000001e+00 2.7915610000000001e+01 3.5785300000000002e+00 0 0 0
3182 444 4 0.0000000000000000e+00 3.4729999999999999e+00 2.6098949999999999e+01 1.8169999999999999e+00 0 0 0
674 444 1 4.1499999999999998e-01 2.4344106378871295e+00 2.8253155444217548e+01 7.9907936670967610e+00 -2 0 0
2674 444 2 -8.2999999999999996e-01 3.2448073701480431e+00 2.5522897398518730e+01 6.5519014989789044e+00 2 -1 0
2675 444 1 4.1499999999999998e-01 2.6357910534156903e+00 2.6252669069767357e+01 6.6648821299476246e+00 2 -1 0
2162 444 1 4.1499999999999998e-01 2.4056014597637398e+00 2.7665258956081928e+01 1.0211440902337060e+01 0 -2 0
2288 444 1 4.1499999999999998e-01 3.7256471678800454e+00 2.4679770211912174e+01 1.1094045944803318e+01 -2 2 0
673 444 2 -8.2999999999999996e-01 3.0460002715978645e+00 2.8343645201122275e+01 8.7215478243444622e+00 -2 0 0
2163 444 1 4.1499999999999998e-01 2.3310905272510078e+00 2.8564473801443157e+01 1.1427070806472022e+01 0 -2 0
393 444 1 4.1499999999999998e-01 2.9146131929818559e+00 2.7856875008550194e+01 1.4103665178488413e+01 -1 0 0
2161 444 2 -8.2999999999999996e-01 2.2758592863175751e+00 2.7647054476087643e+01 1.1159632582679588e+01 0 -2 0
121 444 2 -8.2999999999999996e-01 3.6851328870473967e+00 2.4967119355636925e+01 1.2803111103125195e+01 0 2 0
122 444 1 4.1499999999999998e-01 3.7309565905961484e+00 2.5750576878553787e+01 1.3351131843656191e+01 0 2 0
1462 444 2 -8.2999999999999996e-01 2.1772591701402648e+00 2.7792558137706482e+01 1.8160316200013121e+01 1 -1 0
1971 444 1 4.1499999999999998e-01 3.5684500686995624e+00 2.4675018999932043e+01 1.9798655250247922e+01 -1 2 0
1063 444 2 -8.2999999999999996e-01 2.1298550552299957e+00 2.4544781395238378e+01 1.8205505861829845e+01 2 -1 0
1320 444 1 4.1499999999999998e-01 3.8758621208727151e+00 2.5261463979337684e+01 1.7726318636749784e+01 -2 -2 0
3198 444 4 0.0000000000000000e+00 3.4729999999999999e+00 3.1549700000000001e+01 0.0000000000000000e+00 0 0 0
3199 444 4 0.0000000000000000e+00 3.4733100000000001e+00 3.1560320000000001e+01 3.5790199999999999e+00 0 0 0