LAMMPS data file via write_data, version 11 Aug 2017, timestep = 1000000

3540 atoms
11 atom types
2024 bonds
5 bond types
1018 angles
5 angle types
12 dihedrals
4 dihedral types
9 impropers
1 improper types

0.0000000000000000e+00 3.2704500000000003e+01 xlo xhi
0.0000000000000000e+00 3.2704500000000003e+01 ylo yhi
0.0000000000000000e+00 8.0000000000000000e+01 zlo zhi

Masses

1 1.0079
2 15.9994
3 39.0983
4 63.546
5 15.9994
6 1.0079
7 12.011
8 15.9994
9 15.9994
10 15.9994
11 1.0079

Bond Coeffs # harmonic

1 450 0.9572
2 570 1.229
3 450 1.364
4 570 1.229
5 553 0.945

Angle Coeffs # harmonic

1 100 123.32
2 85 124
3 55 104.52
4 35 113
5 100 123.32

Dihedral Coeffs # charmm

1 0.922 1 180 0
2 3.741 2 0 0
3 0.922 1 0 0
4 3.741 2 180 0

Improper Coeffs # umbrella

1 21 0

Atoms # full

3049 444 4 0.0000000000000000e+00 1.6690600000000000e+00 6.6454999999999997e-01 3.5864099999999999e+00 0 0 0
3051 444 4 0.0000000000000000e+00 1.6560500000000000e+00 2.4790000000000001e+00 1.8169999999999999e+00 0 0 0
3060 444 4 0.0000000000000000e+00 1.6560500000000000e+00 6.6205000000000003e-01 0.0000000000000000e+00 0 0 0
539 444 1 4.1499999999999998e-01 5.7718785211692647e-01 3.5612504602676487e+00 6.4790783755041854e+00 4 0 0
1201 444 2 -8.2999999999999996e-01 2.3182248047619525e-01 1.7616060708527126e+00 6.6854435179781406e+00 2 -2 0
1203 444 1 4.1499999999999998e-01 6.3958719896308325e-01 9.0716042296163490e-01 6.5444355006225043e+00 2 -2 0
451 444 2 -8.2999999999999996e-01 1.1191096132790501e+00 1.5713219563286445e+00 9.4349777031856465e+00 2 0 0
452 444 1 4.1499999999999998e-01 3.2610994402238841e-01 1.6041244276437576e+00 8.8999002752506495e+00 2 0 0
504 444 1 4.1499999999999998e-01 5.8634985214961288e-01 1.4789456069731595e+00 1.5171331233825784e+01 1 -1 0
453 444 1 4.1499999999999998e-01 8.0983693398801959e-01 1.7054001406916095e+00 1.0330860468787797e+01 2 0 0
502 444 2 -8.2999999999999996e-01 1.2945367334726618e+00 9.0799205905982106e-01 1.4873479110241023e+01 1 -1 0
2579 444 1 4.1499999999999998e-01 1.8269260787594641e+00 1.7357442141133648e+00 1.2366443520420576e+01 0 2 0
2578 444 2 -8.2999999999999996e-01 9.4824570051274149e-01 2.0443053601958243e+00 1.2145212515806415e+01 0 2 0
2580 444 1 4.1499999999999998e-01 3.7120840341071482e-01 1.5807038337472032e+00 1.2752117381973946e+01 0 2 0
503 444 1 4.1499999999999998e-01 9.1471061551503952e-01 2.9430766163656585e-02 1.4883264482329295e+01 1 -1 0
1004 444 1 4.1499999999999998e-01 8.8109941772990952e-01 2.5962507527603460e+00 1.9080592899571439e+01 -3 -1 0
159 444 1 4.1499999999999998e-01 2.2737337327891985e-01 1.4925115964998387e-01 1.9196054329865856e+01 3 -4 0
1003 444 2 -8.2999999999999996e-01 2.8529371163121203e-01 1.8626093983526137e+00 1.8928876672740270e+01 -3 -1 0
3066 444 4 0.0000000000000000e+00 1.6560500000000000e+00 4.2959500000000004e+00 0.0000000000000000e+00 0 0 0
3067 444 4 0.0000000000000000e+00 1.6722800000000000e+00 4.2845199999999997e+00 3.5729099999999998e+00 0 0 0
3069 444 4 0.0000000000000000e+00 1.6560500000000000e+00 6.1128000000000000e+00 1.8169999999999999e+00 0 0 0
3086 444 4 0.0000000000000000e+00 1.6560500000000000e+00 7.9297500000000003e+00 0.0000000000000000e+00 0 0 0
3087 444 4 0.0000000000000000e+00 1.6728700000000001e+00 7.9406999999999996e+00 3.5710299999999999e+00 0 0 0
538 444 2 -8.2999999999999996e-01 5.8534896995329777e-01 4.5180374249118946e+00 6.5060086202621257e+00 4 0 0
891 444 1 4.1499999999999998e-01 1.4427945088511231e+00 6.1446309643534081e+00 6.7001847437890945e+00 -2 4 0
915 444 1 4.1499999999999998e-01 1.0692214876392756e+00 7.7749227883999383e+00 7.5285212879880001e+00 -1 -2 0
525 444 1 4.1499999999999998e-01 7.8090040587424225e-01 5.3157024175137417e+00 1.4663209850532786e+01 1 3 0
2193 444 1 4.1499999999999998e-01 1.9398581013066587e+00 6.5847352044539011e+00 1.5278990384751513e+01 0 1 0
389 444 1 4.1499999999999998e-01 4.6456730777790156e-01 4.9836753595881227e+00 9.5634167182753380e+00 -2 -2 0
2237 444 1 4.1499999999999998e-01 1.9556719435685965e+00 7.4363435670444646e+00 9.2064692256161553e+00 -1 1 0
2688 444 1 4.1499999999999998e-01 5.6477277766126643e-01 7.4274433520916272e+00 1.6760453002830193e+01 -1 1 0
234 444 1 4.1499999999999998e-01 2.4048333586238010e-01 4.8045916810896703e+00 1.9019738472291170e+01 3 -1 0
2687 444 1 4.1499999999999998e-01 1.2676839749831004e+00 7.3181985585247187e+00 1.8096819960683607e+01 -1 1 0
233 444 1 4.1499999999999998e-01 1.7346549162632090e+00 4.9164374126911810e+00 1.8803319505220834e+01 3 -1 0
2686 444 2 -8.2999999999999996e-01 1.2763181436097628e+00 6.9677525868532557e+00 1.7206120737812299e+01 -1 1 0
232 444 2 -8.2999999999999996e-01 1.0709510946748626e+00 4.3828129509317657e+00 1.9240325893117021e+01 3 -1 0
3089 444 4 0.0000000000000000e+00 1.6560500000000000e+00 9.7467000000000006e+00 1.8169999999999999e+00 0 0 0
3105 444 4 0.0000000000000000e+00 1.6690600000000000e+00 1.1566050000000001e+01 3.5864099999999999e+00 0 0 0
3116 444 4 0.0000000000000000e+00 1.6560500000000000e+00 1.1563549999999999e+01 0.0000000000000000e+00 0 0 0
1995 444 1 4.1499999999999998e-01 1.2873961527345528e+00 1.2182862789569825e+01 6.4343999837925558e+00 0 -1 0
2172 444 1 4.1499999999999998e-01 3.1293489324331000e-02 9.6737996929662131e+00 6.4851057405694794e+00 1 0 0
2170 444 2 -8.2999999999999996e-01 2.2441516109570073e-01 1.0606139687090678e+01 6.3867266398572315e+00 1 0 0
913 444 2 -8.2999999999999996e-01 2.6539366379580670e-01 8.2573775284443585e+00 7.7217339293168061e+00 -1 -2 0
1418 444 1 4.1499999999999998e-01 2.9774916312755217e-01 8.6130559619010931e+00 1.0582757306857957e+01 4 5 0
552 444 1 4.1499999999999998e-01 1.2994787044061329e+00 8.6592761896375805e+00 1.4717579096938229e+01 0 3 0
550 444 2 -8.2999999999999996e-01 4.9848847952705405e-01 8.9044139360785692e+00 1.5180778917337598e+01 0 3 0
1198 444 2 -8.2999999999999996e-01 1.8224605203855000e+00 1.1027099458266740e+01 1.2815497630489240e+01 4 6 0
914 444 1 4.1499999999999998e-01 5.6382084359580453e-01 9.0577390900762023e+00 8.1536999796451628e+00 -1 -2 0
1443 444 1 4.1499999999999998e-01 8.8394499170170227e-01 1.1561112006232491e+01 1.0807649574123504e+01 1 2 0
551 444 1 4.1499999999999998e-01 6.0280583209696204e-02 9.5199764260058100e+00 1.4593166167909313e+01 0 3 0
1773 444 1 4.1499999999999998e-01 6.3902450895471685e-01 9.5925829905148223e+00 1.6705305128439207e+01 -1 2 0
32 444 1 4.1499999999999998e-01 1.2385796320608042e+00 1.1768427043623110e+01 1.6594680993653586e+01 -4 -1 0
1771 444 2 -8.2999999999999996e-01 5.8130940332879122e-01 9.8731698620811557e+00 1.7618635248106923e+01 -1 2 0
3107 444 4 0.0000000000000000e+00 1.6560500000000000e+00 1.3380500000000000e+01 1.8169999999999999e+00 0 0 0
3122 444 4 0.0000000000000000e+00 1.6560500000000000e+00 1.5197450000000000e+01 0.0000000000000000e+00 0 0 0
3123 444 4 0.0000000000000000e+00 1.6722800000000000e+00 1.5186019999999999e+01 3.5729099999999998e+00 0 0 0
2782 444 2 -8.2999999999999996e-01 4.1778856440577461e-01 1.5148758445351625e+01 7.0319143447361663e+00 3 0 0
2783 444 1 4.1499999999999998e-01 6.6039293472783811e-03 1.5495997216926577e+01 6.2403434386660255e+00 3 0 0
2784 444 1 4.1499999999999998e-01 1.3042220498570378e+00 1.5509765863001016e+01 7.0200185093465786e+00 3 0 0
1993 444 2 -8.2999999999999996e-01 1.9058288675601698e+00 1.2769295438082885e+01 6.8701416169504199e+00 0 -1 0
1994 444 1 4.1499999999999998e-01 1.5663251008987267e+00 1.3647426880715688e+01 6.6973568613464511e+00 0 -1 0
1442 444 1 4.1499999999999998e-01 7.5852920629001619e-01 1.3069646434271153e+01 1.0829785600673169e+01 1 2 0
1122 444 1 4.1499999999999998e-01 9.5906059145935618e-01 1.3009796041882945e+01 1.4388849684668532e+01 2 -4 0
1441 444 2 -8.2999999999999996e-01 1.1107648644629162e+00 1.2346909569281280e+01 1.0310350007481006e+01 1 2 0
1120 444 2 -8.2999999999999996e-01 7.5060751284468097e-03 1.3050252935966061e+01 1.4293246919144810e+01 2 -4 0
31 444 2 -8.2999999999999996e-01 1.5718449343068461e+00 1.2634909027812419e+01 1.6827865828575938e+01 -4 -1 0
33 444 1 4.1499999999999998e-01 9.8046942612443921e-01 1.2942622330217660e+01 1.7514756967178624e+01 -4 -1 0
3125 444 4 0.0000000000000000e+00 1.6560500000000000e+00 1.7014299999999999e+01 1.8169999999999999e+00 0 0 0
3142 444 4 0.0000000000000000e+00 1.6560500000000000e+00 1.8831250000000001e+01 0.0000000000000000e+00 0 0 0
3143 444 4 0.0000000000000000e+00 1.6728700000000001e+00 1.8842199999999998e+01 3.5710299999999999e+00 0 0 0
1231 444 2 -8.2999999999999996e-01 1.1308249280190856e+00 1.7863447519841511e+01 6.4819326217819606e+00 -1 1 0
1232 444 1 4.1499999999999998e-01 8.9622730099177117e-01 1.8767988223016030e+01 6.6893018628879384e+00 -1 1 0
1233 444 1 4.1499999999999998e-01 4.3819061879443999e-01 1.7338027791467788e+01 6.8824619796269078e+00 -1 1 0
1971 444 1 4.1499999999999998e-01 6.9619395669389872e-01 1.7464087418358819e+01 1.3033191230167436e+01 3 0 0
1970 444 1 4.1499999999999998e-01 1.5028496408224448e+00 1.7663967789805291e+01 1.4298596637665939e+01 3 0 0
1969 444 2 -8.2999999999999996e-01 6.8993844999485621e-01 1.7278174699427847e+01 1.3972142883785525e+01 3 0 0
1757 444 1 4.1499999999999998e-01 1.1667417447230066e+00 1.7772243844697236e+01 1.0797373528040499e+01 -5 0 0
1756 444 2 -8.2999999999999996e-01 3.4723683584617238e-01 1.8009169709207338e+01 1.1231551591673176e+01 -5 0 0
338 444 1 4.1499999999999998e-01 2.2141622396824565e-01 1.8277290784157397e+01 1.5471699945979790e+01 1 0 0
226 444 2 -8.2999999999999996e-01 8.9801773852326694e-01 1.7817752840635169e+01 1.8798072096731403e+01 0 -4 0
337 444 2 -8.2999999999999996e-01 2.6714482132589978e-02 1.8833656399247690e+01 1.6225875668497142e+01 1 0 0
227 444 1 4.1499999999999998e-01 1.1232153776478526e+00 1.8214936094674734e+01 1.7956785338242312e+01 0 -4 0
228 444 1 4.1499999999999998e-01 3.9120927475372996e-01 1.7039058281626506e+01 1.8567828482095450e+01 0 -4 0
2470 444 2 -8.2999999999999996e-01 9.0444320320411317e-02 2.0164334544528991e+01 1.9636914770738013e+01 -4 -2 0
2472 444 1 4.1499999999999998e-01 2.4596858330196716e-01 1.9229704899578103e+01 1.9500852024895348e+01 -4 -2 0
3145 444 4 0.0000000000000000e+00 1.6560500000000000e+00 2.0648199999999999e+01 1.8169999999999999e+00 0 0 0
3161 444 4 0.0000000000000000e+00 1.6690600000000000e+00 2.2467549999999999e+01 3.5864099999999999e+00 0 0 0
3163 444 4 0.0000000000000000e+00 1.6560500000000000e+00 2.4282000000000000e+01 1.8169999999999999e+00 0 0 0
3172 444 4 0.0000000000000000e+00 1.6560500000000000e+00 2.2465050000000002e+01 0.0000000000000000e+00 0 0 0
2231 444 1 4.1499999999999998e-01 8.0597141473902525e-02 2.0962111481952675e+01 7.7202928519956195e+00 0 -3 0
2637 444 1 4.1499999999999998e-01 3.2820107764816503e-01 2.3839877276397164e+01 6.5717818581727405e+00 -1 4 0
2232 444 1 4.1499999999999998e-01 1.0536940581544463e+00 2.1099821640772017e+01 6.5687662361712889e+00 0 -3 0
1561 444 2 -8.2999999999999996e-01 1.8016458288438792e+00 2.3999451590764735e+01 7.0653709448105309e+00 -2 -5 0
2230 444 2 -8.2999999999999996e-01 3.9520464859575388e-01 2.0510742319751841e+01 6.9370177070624015e+00 0 -3 0
2672 444 1 4.1499999999999998e-01 1.6254130644809057e+00 2.3899700759463897e+01 9.2725407246884224e+00 0 0 0
1426 444 2 -8.2999999999999996e-01 7.8811513658142540e-01 2.2464073157803057e+01 1.5858535698731918e+01 -2 -4 0
12 444 1 4.1499999999999998e-01 4.5522105204199942e-01 2.2158519627238718e+01 1.3456524185914791e+01 -1 1 0
1428 444 1 4.1499999999999998e-01 4.1573049383349957e-02 2.1874071205435087e+01 1.5754591053931122e+01 -2 -4 0
2671 444 2 -8.2999999999999996e-01 1.5374413081066032e+00 2.3380273820944829e+01 1.0071720871033685e+01 0 0 0
2673 444 1 4.1499999999999998e-01 1.5319565963495660e+00 2.4026028193030726e+01 1.0778264034999948e+01 0 0 0
254 444 1 4.1499999999999998e-01 9.2992590625252128e-02 2.2574706248459037e+01 9.2775427512491930e+00 8 0 0
1019 444 1 4.1499999999999998e-01 1.7993281366218121e+00 2.1611391804367308e+01 1.1049069865245926e+01 -1 2 0
1427 444 1 4.1499999999999998e-01 1.3713404412171235e+00 2.2008501297850110e+01 1.6465606191796873e+01 -2 -4 0
3178 444 4 0.0000000000000000e+00 1.6560500000000000e+00 2.6098949999999999e+01 0.0000000000000000e+00 0 0 0
3179 444 4 0.0000000000000000e+00 1.6722800000000000e+00 2.6087520000000001e+01 3.5729099999999998e+00 0 0 0
3181 444 4 0.0000000000000000e+00 1.6560500000000000e+00 2.7915800000000001e+01 1.8169999999999999e+00 0 0 0
478 444 2 -8.2999999999999996e-01 1.0906614528510370e+00 2.6990954294345354e+01 7.7348188322886617e+00 1 4 0
480 444 1 4.1499999999999998e-01 1.7918792054030605e-01 2.7207793315786933e+01 7.9308513800113101e+00 1 4 0
479 444 1 4.1499999999999998e-01 1.3995867242376763e+00 2.6526756747779011e+01 8.5128405695196765e+00 1 4 0
462 444 1 4.1499999999999998e-01 4.8697934871279303e-01 2.6571800098305111e+01 1.4417370339787393e+01 2 -2 0
460 444 2 -8.2999999999999996e-01 1.3856781921869674e+00 2.6405710795846147e+01 1.4701953896209632e+01 2 -2 0
461 444 1 4.1499999999999998e-01 1.9029005286842600e+00 2.7088049958987849e+01 1.4274020561684480e+01 2 -2 0
1147 444 2 -8.2999999999999996e-01 2.0301209045241344e+00 2.6227665164509489e+01 9.9763410324618427e+00 0 -2 0
2556 444 1 4.1499999999999998e-01 9.2660690880419838e-01 2.4870414214906528e+01 1.8257276219338198e+01 2 -5 0
2554 444 2 -8.2999999999999996e-01 1.6121564419870238e-01 2.5404361786933809e+01 1.8470134611826801e+01 2 -5 0
3198 444 4 0.0000000000000000e+00 1.6560500000000000e+00 2.9732749999999999e+01 0.0000000000000000e+00 0 0 0
3199 444 4 0.0000000000000000e+00 1.6728700000000001e+00 2.9743700000000000e+01 3.5710299999999999e+00 0 0 0
3201 444 4 0.0000000000000000e+00 1.6560500000000000e+00 3.1549700000000001e+01 1.8169999999999999e+00 0 0 0
261 444 1 4.1499999999999998e-01 4.8815125723418062e-01 3.1048387376474796e+01 7.0556910622081688e+00 -1 -4 0
1523 444 1 4.1499999999999998e-01 1.7637681428779162e+00 2.9226148039974461e+01 6.9004862610941426e+00 1 -3 0
450 444 1 4.1499999999999998e-01 1.7766339513887091e+00 3.0654777939206181e+01 1.5043659393977784e+01 -3 2 0
1695 444 1 4.1499999999999998e-01 6.4975995863812630e-01 2.9287324542145761e+01 1.0163532961491356e+01 1 1 0
1693 444 2 -8.2999999999999996e-01 9.8765170996720697e-01 3.0046886057300689e+01 9.6890570336534374e+00 1 1 0
1694 444 1 4.1499999999999998e-01 2.8276272049047918e-01 3.0692707147229168e+01 9.7367915941949441e+00 1 1 0
448 444 2 -8.2999999999999996e-01 8.8676628198282470e-01 3.1006703788103412e+01 1.5020949240336062e+01 -3 2 0
449 444 1 4.1499999999999998e-01 4.9493392716661855e-01 3.0721945547841962e+01 1.5846547228094746e+01 -3 2 0
2655 444 1 4.1499999999999998e-01 1.3815546337147655e+00 2.9081314251548140e+01 1.3182508552751697e+01 2 0 0
157 444 2 -8.2999999999999996e-01 2.2314777747104236e-01 3.1901416620696772e+01 1.9292356359752272e+01 3 -5 0
3050 444 4 0.0000000000000000e+00 3.4729999999999999e+00 6.6205000000000003e-01 1.8169999999999999e+00 0 0 0
3074 444 4 0.0000000000000000e+00 3.4731299999999998e+00 2.4692300000000000e+00 3.5865800000000001e+00 0 0 0
3075 444 4 0.0000000000000000e+00 3.4729999999999999e+00 2.4790000000000001e+00 0.0000000000000000e+00 0 0 0
1099 444 2 -8.2999999999999996e-01 3.0475037337986493e+00 2.4964457927342654e+00 7.2867027026715334e+00 -1 -1 0
423 444 1 4.1499999999999998e-01 3.0674468182408017e+00 2.4644489034197020e-01 6.4923967752961458e+00 2 0 0
2456 444 1 4.1499999999999998e-01 3.8636941439471522e+00 4.0085747044828439e+00 7.5884871549125537e+00 -3 0 0
1101 444 1 4.1499999999999998e-01 2.3735604262348375e+00 2.6534317518200927e+00 6.6253491481732514e+00 -1 -1 0
2660 444 1 4.1499999999999998e-01 2.6393404154117737e+00 1.4631431083690081e+00 1.5913611949184375e+01 0 4 0
2406 444 1 4.1499999999999998e-01 2.8470572026204763e+00 1.2142483157061905e+00 1.3879050930879513e+01 2 2 0
999 444 1 4.1499999999999998e-01 2.4792170464981806e+00 3.8945237208983341e-01 9.6978554035379965e+00 -1 0 0
1100 444 1 4.1499999999999998e-01 2.5585529304666679e+00 2.2906762764408746e+00 8.0834580264619706e+00 -1 -1 0
2404 444 2 -8.2999999999999996e-01 3.3917604516555411e+00 1.5276483555347977e+00 1.3157032121703702e+01 2 2 0
2661 444 1 4.1499999999999998e-01 3.8537710605781759e+00 2.3653841182138873e+00 1.5968522093991497e+01 0 4 0
1887 444 1 4.1499999999999998e-01 2.1744408335129433e+00 3.7759752602020109e+00 1.0544808295750880e+01 0 -2 0
2659 444 2 -8.2999999999999996e-01 3.3075424477849804e+00 1.7974316742822789e+00 1.6511934339710010e+01 0 4 0
3064 444 4 0.0000000000000000e+00 3.4729999999999999e+00 6.1128000000000000e+00 0.0000000000000000e+00 0 0 0
3065 444 4 0.0000000000000000e+00 3.4736199999999999e+00 6.1125800000000003e+00 3.5853999999999999e+00 0 0 0
3068 444 4 0.0000000000000000e+00 3.4729999999999999e+00 4.2959500000000004e+00 1.8169999999999999e+00 0 0 0
3088 444 4 0.0000000000000000e+00 3.4729999999999999e+00 7.9297500000000003e+00 1.8169999999999999e+00 0 0 0
890 444 1 4.1499999999999998e-01 2.7265279614134479e+00 5.7457462202787326e+00 7.3964712742462577e+00 -2 4 0
889 444 2 -8.2999999999999996e-01 2.2234938956841215e+00 6.5103325702846595e+00 7.1161208143455461e+00 -2 4 0
2880 444 1 4.1499999999999998e-01 3.1712948745114433e+00 7.8991275035257296e+00 7.8841741227662023e+00 -1 1 0
2622 444 1 4.1499999999999998e-01 2.8993508205518035e+00 6.2777174451505253e+00 1.2964588520161577e+01 2 5 0
2191 444 2 -8.2999999999999996e-01 2.3374029612103389e+00 6.0623649970290483e+00 1.4582341742698231e+01 0 1 0
2620 444 2 -8.2999999999999996e-01 3.3643075141456174e+00 6.2471481907180539e+00 1.2128458898456492e+01 2 5 0
2238 444 1 4.1499999999999998e-01 2.3364118355567314e+00 7.2605346862511313e+00 1.0661125146295458e+01 -1 1 0
2192 444 1 4.1499999999999998e-01 3.0683569896846086e+00 5.6130282461684615e+00 1.5006646681529636e+01 0 1 0
1885 444 2 -8.2999999999999996e-01 2.0821285646627428e+00 4.6667356001707665e+00 1.0206789553561810e+01 0 -2 0
1886 444 1 4.1499999999999998e-01 2.5388816612328422e+00 5.2142847740782052e+00 1.0845381067214184e+01 0 -2 0
2621 444 1 4.1499999999999998e-01 4.0246847849671550e+00 6.9367916807567598e+00 1.2195732188481951e+01 2 5 0
2236 444 2 -8.2999999999999996e-01 2.1102136015161341e+00 7.9278096327632079e+00 1.0013197124890407e+01 -1 1 0
2397 444 1 4.1499999999999998e-01 2.3626820682545238e+00 7.9311018043530730e+00 1.9777906815969086e+01 5 -2 0
3084 444 4 0.0000000000000000e+00 3.4729999999999999e+00 9.7467000000000006e+00 0.0000000000000000e+00 0 0 0
3085 444 4 0.0000000000000000e+00 3.4734200000000000e+00 9.7571200000000005e+00 3.5859500000000000e+00 0 0 0
3106 444 4 0.0000000000000000e+00 3.4729999999999999e+00 1.1563549999999999e+01 1.8169999999999999e+00 0 0 0
2878 444 2 -8.2999999999999996e-01 3.8287023982514996e+00 8.5902563823916438e+00 7.9641003943429398e+00 -1 1 0
867 444 1 4.1499999999999998e-01 2.3714270207747234e+00 1.1431853547869803e+01 7.6438024059292644e+00 0 -1 0
2431 444 2 -8.2999999999999996e-01 3.2460062747673608e+00 9.0791621057495746e+00 1.4253341257421082e+01 5 -3 0
2432 444 1 4.1499999999999998e-01 3.9285529257433711e+00 8.7528557566966292e+00 1.3666923201268855e+01 5 -3 0
2433 444 1 4.1499999999999998e-01 3.5817122076313139e+00 9.9181643029499682e+00 1.4568950614291237e+01 5 -3 0
1200 444 1 4.1499999999999998e-01 2.2777292288187900e+00 1.0380705431642728e+01 1.3355068767316379e+01 4 6 0
866 444 1 4.1499999999999998e-01 2.1500787550104721e+00 1.1133052666089855e+01 9.1113235141674114e+00 0 -1 0
865 444 2 -8.2999999999999996e-01 2.5041206830672031e+00 1.0754237615186026e+01 8.3067209132641366e+00 0 -1 0
2879 444 1 4.1499999999999998e-01 3.3329430768717900e+00 9.3628354475637003e+00 8.2353496965573090e+00 -1 1 0
1199 444 1 4.1499999999999998e-01 2.5083249234386993e+00 1.1634994577710202e+01 1.2539299425659232e+01 4 6 0
749 444 1 4.1499999999999998e-01 2.9661150946804673e+00 1.0607314475046534e+01 1.9759745382735577e+01 -2 -5 0
748 444 2 -8.2999999999999996e-01 2.8987476327017800e+00 9.7802951116685364e+00 1.9282530532782577e+01 -2 -5 0
750 444 1 4.1499999999999998e-01 2.0937989913093884e+00 9.8631378059380275e+00 1.8771230328620767e+01 -2 -5 0
3124 444 4 0.0000000000000000e+00 3.4729999999999999e+00 1.5197450000000000e+01 1.8169999999999999e+00 0 0 0
3130 444 4 0.0000000000000000e+00 3.4731299999999998e+00 1.3370730000000000e+01 3.5865800000000001e+00 0 0 0
3131 444 4 0.0000000000000000e+00 3.4729999999999999e+00 1.3380500000000000e+01 0.0000000000000000e+00 0 0 0
2252 444 1 4.1499999999999998e-01 3.6996422986803124e+00 1.2987825987073727e+01 6.6739293540449172e+00 1 -3 0
115 444 2 -8.2999999999999996e-01 3.9048930422522505e+00 1.5292364371281455e+01 1.2294159249554783e+01 0 4 0
1129 444 2 -8.2999999999999996e-01 3.7302614957734477e+00 1.2736873242741613e+01 1.2113970877622302e+01 4 4 0
117 444 1 4.1499999999999998e-01 3.2342654723497186e+00 1.5915916940992004e+01 1.2015460836963340e+01 0 4 0
1486 444 2 -8.2999999999999996e-01 3.4278031062860221e+00 1.4271089149142433e+01 9.0291781895571397e+00 2 -4 0
1487 444 1 4.1499999999999998e-01 2.6489980875499257e+00 1.3789552522123916e+01 9.3081362829202394e+00 2 -4 0
1130 444 1 4.1499999999999998e-01 3.7201526527554205e+00 1.3693124670981096e+01 1.2155359046574508e+01 4 4 0
1488 444 1 4.1499999999999998e-01 3.8419281975171473e+00 1.3702354667317882e+01 8.3801219760988310e+00 2 -4 0
1817 444 1 4.1499999999999998e-01 3.4542548824321333e+00 1.4412072318684618e+01 1.4482718907783376e+01 -5 -1 0
1607 444 1 4.1499999999999998e-01 3.0308646177535943e+00 1.6089652302696020e+01 9.6419641870533255e+00 2 -2 0
2532 444 1 4.1499999999999998e-01 3.0181842255373770e+00 1.3507420411513186e+01 1.7609190220777144e+01 -2 6 0
2530 444 2 -8.2999999999999996e-01 3.5733150488572520e+00 1.3810724060115087e+01 1.8327570256683629e+01 -2 6 0
944 444 1 4.1499999999999998e-01 3.8018117175267383e+00 1.5812664709867134e+01 1.8111326620351974e+01 3 0 0
3120 444 4 0.0000000000000000e+00 3.4729999999999999e+00 1.7014299999999999e+01 0.0000000000000000e+00 0 0 0
3121 444 4 0.0000000000000000e+00 3.4736199999999999e+00 1.7014080000000000e+01 3.5853999999999999e+00 0 0 0
3144 444 4 0.0000000000000000e+00 3.4729999999999999e+00 1.8831250000000001e+01 1.8169999999999999e+00 0 0 0
1025 444 1 4.1499999999999998e-01 2.7038957091456060e+00 1.7537719506368280e+01 6.2308236492989257e+00 -3 1 0
1021 444 2 -8.2999999999999996e-01 3.6505640718167505e+00 1.7399765970992153e+01 6.1988898041270124e+00 -3 1 0
1023 444 1 4.1499999999999998e-01 4.0219961038964049e+00 1.8281938011621627e+01 6.2054176364208447e+00 -3 1 0
1606 444 2 -8.2999999999999996e-01 2.7041765832602089e+00 1.6809221736584401e+01 1.0182081831216307e+01 2 -2 0
169 444 2 -8.2999999999999996e-01 2.7411790083692442e+00 1.8467890208530608e+01 1.5276256957430013e+01 0 2 0
656 444 1 4.1499999999999998e-01 3.4739254958172037e+00 2.0272238776978632e+01 1.2898391721960955e+01 -2 -3 0
1635 444 1 4.1499999999999998e-01 3.9540232758330345e+00 1.9995829440714228e+01 9.1521015320204970e+00 1 2 0
170 444 1 4.1499999999999998e-01 3.4086252947300753e+00 1.8277549763045663e+01 1.5935437107018902e+01 0 2 0
171 444 1 4.1499999999999998e-01 2.2924328014789750e+00 1.9246073710071279e+01 1.5606847431073707e+01 0 2 0
1608 444 1 4.1499999999999998e-01 3.3263121883133109e+00 1.7521573787706004e+01 1.0034656490383325e+01 2 -2 0
2137 444 2 -8.2999999999999996e-01 2.5839684050426239e+00 2.0251489241118229e+01 1.7551627326296966e+01 -1 -4 0
2448 444 1 4.1499999999999998e-01 3.5688974467024610e+00 1.7225268662069297e+01 1.9568449087992022e+01 -2 -3 0
2139 444 1 4.1499999999999998e-01 2.6654893308386862e+00 2.0198352866486381e+01 1.8503868257567355e+01 -1 -4 0
2447 444 1 4.1499999999999998e-01 2.1966871986873873e+00 1.7847270647824370e+01 1.9716934910040145e+01 -2 -3 0
3140 444 4 0.0000000000000000e+00 3.4729999999999999e+00 2.0648199999999999e+01 0.0000000000000000e+00 0 0 0
3141 444 4 0.0000000000000000e+00 3.4734200000000000e+00 2.0658619999999999e+01 3.5859500000000000e+00 0 0 0
3162 444 4 0.0000000000000000e+00 3.4729999999999999e+00 2.2465050000000002e+01 1.8169999999999999e+00 0 0 0
3186 444 4 0.0000000000000000e+00 3.4731299999999998e+00 2.4272230000000000e+01 3.5865800000000001e+00 0 0 0
3187 444 4 0.0000000000000000e+00 3.4729999999999999e+00 2.4282000000000000e+01 0.0000000000000000e+00 0 0 0
359 444 1 4.1499999999999998e-01 3.2458260251045332e+00 2.1495439741952669e+01 7.4239183439379790e+00 -1 0 0
358 444 2 -8.2999999999999996e-01 3.1442757872697502e+00 2.1836700513217053e+01 6.5354023787164559e+00 -1 0 0
1562 444 1 4.1499999999999998e-01 2.2677835527564820e+00 2.3185201949505995e+01 6.8757789138886842e+00 -2 -5 0
360 444 1 4.1499999999999998e-01 3.9528220933957776e+00 2.1586459179927186e+01 6.0883407984441194e+00 -1 0 0
1018 444 2 -8.2999999999999996e-01 2.2391617788898155e+00 2.1268136734755007e+01 1.1826857884865168e+01 -1 2 0
1020 444 1 4.1499999999999998e-01 2.5340795920377515e+00 2.2046776973891731e+01 1.2299060015693870e+01 -1 2 0
3010 444 2 -8.2999999999999996e-01 2.6634644234948297e+00 2.3401272055308038e+01 1.3441761320477200e+01 -7 -3 0
3012 444 1 4.1499999999999998e-01 3.5692470183114451e+00 2.3648575489813084e+01 1.3627855225563918e+01 -7 -3 0
1633 444 2 -8.2999999999999996e-01 3.7478448433463614e+00 2.0902885406724565e+01 8.9263303936222922e+00 1 2 0
1634 444 1 4.1499999999999998e-01 3.6436652020791493e+00 2.1342502255554269e+01 9.7701999961640347e+00 1 2 0
3011 444 1 4.1499999999999998e-01 2.1633760331560241e+00 2.3748063148273491e+01 1.4180598008759532e+01 -7 -3 0
1408 444 2 -8.2999999999999996e-01 2.5219139443117622e+00 2.3295698180990591e+01 1.8238177272970489e+01 7 -2 0
1409 444 1 4.1499999999999998e-01 3.2869851127987948e+00 2.3302207085845630e+01 1.7662976503921612e+01 7 -2 0
1410 444 1 4.1499999999999998e-01 2.8079429942469223e+00 2.2811097466863369e+01 1.9012504721388158e+01 7 -2 0
2138 444 1 4.1499999999999998e-01 3.4231741052305704e+00 2.0606389648168292e+01 1.7258350255886807e+01 -1 -4 0
3176 444 4 0.0000000000000000e+00 3.4729999999999999e+00 2.7915800000000001e+01 0.0000000000000000e+00 0 0 0
3177 444 4 0.0000000000000000e+00 3.4736199999999999e+00 2.7915579999999999e+01 3.5853999999999999e+00 0 0 0
3180 444 4 0.0000000000000000e+00 3.4729999999999999e+00 2.6098949999999999e+01 1.8169999999999999e+00 0 0 0
2463 444 1 4.1499999999999998e-01 2.4693634152045716e+00 2.6402561622205923e+01 6.9068566224093999e+00 -1 4 0
2461 444 2 -8.2999999999999996e-01 3.3389929430077632e+00 2.6290890267584086e+01 6.5227913819547583e+00 -1 4 0
1563 444 1 4.1499999999999998e-01 2.3719630889563792e+00 2.4687771496799812e+01 6.7230465841731091e+00 -2 -5 0
2462 444 1 4.1499999999999998e-01 3.7508838875255655e+00 2.7150796691529603e+01 6.6072818852485193e+00 -1 4 0
376 444 2 -8.2999999999999996e-01 3.7376076213563709e+00 2.8141121788074972e+01 1.1350381877604997e+01 0 -1 0
1149 444 1 4.1499999999999998e-01 2.2356340938740238e+00 2.7040205399423257e+01 1.0438699730837717e+01 0 -2 0
1148 444 1 4.1499999999999998e-01 2.8480634810178564e+00 2.5730642306054907e+01 9.9894001188562829e+00 0 -2 0
2882 444 1 4.1499999999999998e-01 2.9146672469013133e+00 2.6501626308373101e+01 1.5551514931558117e+01 -2 2 0
2881 444 2 -8.2999999999999996e-01 3.8220771660591644e+00 2.6796497326030067e+01 1.5628268707213262e+01 -2 2 0
3196 444 4 0.0000000000000000e+00 3.4729999999999999e+00 3.1549700000000001e+01 0.0000000000000000e+00 0 0 0
3197 444 4 0.0000000000000000e+00 3.4734200000000000e+00 3.1560120000000001e+01 3.5859500000000000e+00 0 0 0
3200 444 4 0.0000000000000000e+00 3.4729999999999999e+00 2.9732749999999999e+01 1.8169999999999999e+00 0 0 0
1522 444 2 -8.2999999999999996e-01 2.5227926067026027e+00 2.9782298015133318e+01 7.0760184853370989e+00 1 -3 0
422 444 1 4.1499999999999998e-01 2.4208858138750671e+00 3.1583107493501917e+01 6.5460174085999201e+00 2 -1 0
1524 444 1 4.1499999999999998e-01 2.8450530906551639e+00 2.9486777491400449e+01 7.9275162030386381e+00 1 -3 0
421 444 2 -8.2999999999999996e-01 2.2157707753676736e+00 3.2518057147639212e+01 6.5514618207825617e+00 2 -1 0
105 444 1 4.1499999999999998e-01 2.8532242460708095e+00 2.9301119392535082e+01 1.5100942643986279e+01 -1 4 0
103 444 2 -8.2999999999999996e-01 3.0918641346624547e+00 2.9659024053010178e+01 1.5956037613040833e+01 -1 4 0
997 444 2 -8.2999999999999996e-01 2.9269623901973638e+00 3.2256734598645451e+01 9.8196048649962187e+00 -1 -1 0
2653 444 2 -8.2999999999999996e-01 2.2664986506782139e+00 2.8850980636438713e+01 1.3465444202647342e+01 2 0 0
998 444 1 4.1499999999999998e-01 2.2446853016674853e+00 3.1598359938316914e+01 9.6881776730437572e+00 -1 -1 0
2654 444 1 4.1499999999999998e-01 2.8075833167951552e+00 2.8974551452458030e+01 1.2685578512360369e+01 2 0 0
104 444 1 4.1499999999999998e-01 3.6647604497363031e+00 2.8996476272255872e+01 1.6342110310606252e+01 -1 4 0
2072 444 1 4.1499999999999998e-01 4.0137805277037772e+00 3.1200788529020713e+01 1.6232721646160911e+01 -1 1 0
3054 444 4 0.0000000000000000e+00 5.2898399999999999e+00 6.6205000000000003e-01 0.0000000000000000e+00 0 0 0
3055 444 4 0.0000000000000000e+00 5.2759400000000003e+00 6.6498999999999997e-01 3.5868000000000002e+00 0 0 0
3057 444 4 0.0000000000000000e+00 5.2898399999999999e+00 2.4790000000000001e+00 1.8169999999999999e+00 0 0 0
1073 444 1 4.1499999999999998e-01 4.2957625235214802e+00 1.3145567214946248e+00 6.8784291236805508e+00 -4 2 0
1072 444 2 -8.2999999999999996e-01 4.8205173005469550e+00 5.2478117481512898e-01 6.7475898501456459e+00 -4 2 0
1074 444 1 4.1499999999999998e-01 5.6674103222401371e+00 8.4762612963988437e-01 6.4397339782296061e+00 -4 2 0
2044 444 2 -8.2999999999999996e-01 5.0766283262584437e+00 2.8899353957053484e+00 1.4749933279244955e+01 4 0 0
2045 444 1 4.1499999999999998e-01 6.0173775735755148e+00 2.7134542128878256e+00 1.4741118212401791e+01 4 0 0
2405 444 1 4.1499999999999998e-01 4.1294253290459118e+00 1.9629609702642159e+00 1.3584334485704513e+01 2 2 0
2046 444 1 4.1499999999999998e-01 5.0105416723308966e+00 3.8312840768883540e+00 1.4910333189484959e+01 4 0 0