LAMMPS data file via write_data, version 11 Aug 2017, timestep = 1000000

3576 atoms
12 atom types
2024 bonds
5 bond types
1018 angles
5 angle types
12 dihedrals
4 dihedral types
9 impropers
1 improper types

0.0000000000000000e+00 3.2704500000000003e+01 xlo xhi
0.0000000000000000e+00 3.2704500000000003e+01 ylo yhi
0.0000000000000000e+00 8.0000000000000000e+01 zlo zhi

Masses

1 1.0079
2 15.9994
3 39.0983
4 63.546
5 12.011
6 15.9994
7 1.0079
8 12.011
9 15.9994
10 15.9994
11 15.9994
12 1.0079

Bond Coeffs # harmonic

1 450 0.9572
2 570 1.229
3 450 1.364
4 570 1.229
5 553 0.945

Angle Coeffs # harmonic

1 100 123.32
2 85 124
3 55 104.52
4 35 113
5 100 123.32

Dihedral Coeffs # charmm

1 0.922 1 180 0
2 3.741 2 0 0
3 0.922 1 0 0
4 3.741 2 180 0

Improper Coeffs # umbrella

1 21 0

Atoms # full

3037 444 4 0.0000000000000000e+00 1.6695199999999999e+00 6.6232999999999997e-01 3.5990700000000002e+00 0 0 0
3039 444 4 0.0000000000000000e+00 1.6560500000000000e+00 2.4790000000000001e+00 1.8169999999999999e+00 0 0 0
3048 444 4 0.0000000000000000e+00 1.6560500000000000e+00 6.6205000000000003e-01 0.0000000000000000e+00 0 0 0
2007 444 1 4.1499999999999998e-01 7.6037131246277823e-01 2.9643107001606319e+00 6.4140955954277414e+00 2 2 0
1280 444 1 4.1499999999999998e-01 1.5600992636925282e+00 2.7650438140137772e+00 1.4973743281371689e+01 -1 2 0
2710 444 2 -8.2999999999999996e-01 1.0840533712542764e+00 2.8949844358563581e+00 1.2143479313149150e+01 -4 2 0
1279 444 2 -8.2999999999999996e-01 7.2491275388611220e-01 2.8821540817326867e+00 1.5426492165285632e+01 -1 2 0
856 444 2 -8.2999999999999996e-01 4.8624196345243437e-01 2.5325574914936388e-01 1.5781297320659332e+01 1 -1 0
2712 444 1 4.1499999999999998e-01 1.9278579133016687e+00 2.4479996863495579e+00 1.2210040200781274e+01 -4 2 0
857 444 1 4.1499999999999998e-01 4.1387960372074339e-01 1.2057530941462211e+00 1.5842500065527686e+01 1 -1 0
1281 444 1 4.1499999999999998e-01 8.6090719136918931e-02 3.0034747913222390e+00 1.4724053550805733e+01 -1 2 0
1382 444 1 4.1499999999999998e-01 1.9346678613284092e+00 3.9197773603817498e-01 1.0442844871417350e+01 -3 -5 0
2711 444 1 4.1499999999999998e-01 1.3098026982781119e+00 3.8108358049404480e+00 1.1980735509173950e+01 -4 2 0
858 444 1 4.1499999999999998e-01 1.4174090488152919e+00 7.4406042986815635e-02 1.5912342829252687e+01 1 -1 0
2691 444 1 4.1499999999999998e-01 1.1528393417591551e+00 4.3602190498546395e-01 1.9547468083220455e+01 -3 4 0
1113 444 1 4.1499999999999998e-01 4.5081141265021429e-01 3.7216117798264112e+00 1.7178842590486482e+01 0 -2 0
3054 444 4 0.0000000000000000e+00 1.6560500000000000e+00 4.2959500000000004e+00 0.0000000000000000e+00 0 0 0
3055 444 4 0.0000000000000000e+00 1.6566500000000000e+00 4.2999200000000002e+00 3.5734499999999998e+00 0 0 0
3057 444 4 0.0000000000000000e+00 1.6560500000000000e+00 6.1128000000000000e+00 1.8169999999999999e+00 0 0 0
3074 444 4 0.0000000000000000e+00 1.6560500000000000e+00 7.9297500000000003e+00 0.0000000000000000e+00 0 0 0
3075 444 4 0.0000000000000000e+00 1.6787600000000000e+00 7.9480199999999996e+00 3.5819899999999998e+00 0 0 0
2506 444 2 -8.2999999999999996e-01 1.3646031602129307e+00 5.6548606295919370e+00 7.1497550114884350e+00 -3 2 0
2507 444 1 4.1499999999999998e-01 1.9114977745974902e+00 6.3785686039587457e+00 6.8441651937000012e+00 -3 2 0
2508 444 1 4.1499999999999998e-01 4.6886753274094456e-01 5.9852107225379134e+00 7.0807720001929928e+00 -3 2 0
2006 444 1 4.1499999999999998e-01 2.9461160814335025e-01 4.2897398991204287e+00 6.9781882400846671e+00 2 2 0
732 444 1 4.1499999999999998e-01 1.5456433069406403e+00 7.5691813445598903e+00 8.8054832015351199e+00 6 -2 0
2823 444 1 4.1499999999999998e-01 4.5739223180741712e-01 6.3078725180120712e+00 1.4855373729787191e+01 1 2 0
1215 444 1 4.1499999999999998e-01 1.2646752896878337e+00 6.4830698451125741e+00 1.1376498081792983e+01 1 2 0
730 444 2 -8.2999999999999996e-01 9.2841043919167221e-01 7.5565465192134349e+00 9.5369855473739236e+00 6 -2 0
1213 444 2 -8.2999999999999996e-01 1.8950445201254533e+00 5.8649851482485298e+00 1.1746413395824343e+01 1 2 0
1992 444 1 4.1499999999999998e-01 1.0728263144850663e+00 4.7921600674209985e+00 1.9079814625660912e+01 2 1 0
1111 444 2 -8.2999999999999996e-01 3.7224507745398244e-01 4.5206585359701625e+00 1.7699980092398668e+01 0 -2 0
1990 444 2 -8.2999999999999996e-01 1.4266806836125854e+00 5.1108431592806181e+00 1.9910151962838381e+01 2 1 0
3077 444 4 0.0000000000000000e+00 1.6560500000000000e+00 9.7467000000000006e+00 1.8169999999999999e+00 0 0 0
3097 444 4 0.0000000000000000e+00 1.6695199999999999e+00 1.1563829999999999e+01 3.5990700000000002e+00 0 0 0
3108 444 4 0.0000000000000000e+00 1.6560500000000000e+00 1.1563549999999999e+01 0.0000000000000000e+00 0 0 0
343 444 2 -8.2999999999999996e-01 6.2957968705587730e-01 8.8545598979527895e+00 6.1657543635612013e+00 1 1 0
345 444 1 4.1499999999999998e-01 5.6581037809255719e-01 9.7705543135455173e+00 6.4361606001650200e+00 1 1 0
1252 444 2 -8.2999999999999996e-01 9.7361094670151549e-01 1.1132707986364402e+01 7.1825995237997224e+00 1 3 0
1253 444 1 4.1499999999999998e-01 1.7132416714587198e+00 1.1718694571787909e+01 7.0219822250453463e+00 1 3 0
344 444 1 4.1499999999999998e-01 1.4852428560246775e+00 8.5688589616859705e+00 6.4858280954092793e+00 1 1 0
1254 444 1 4.1499999999999998e-01 2.4706930206550864e-01 1.1525008002335404e+01 6.6983787223971287e+00 1 3 0
1512 444 1 4.1499999999999998e-01 1.4877998224270352e+00 1.1633800409592183e+01 1.4608786689725887e+01 -2 3 0
731 444 1 4.1499999999999998e-01 5.9783407587319859e-01 8.4534255548869819e+00 9.5875732783290086e+00 6 -2 0
2428 444 2 -8.2999999999999996e-01 2.5832797829883086e-01 1.0080244231373220e+01 9.4962492561905805e+00 1 -1 0
1702 444 2 -8.2999999999999996e-01 8.7836070507126152e-01 1.0537589480354695e+01 1.2045137153927133e+01 1 -2 0
1704 444 1 4.1499999999999998e-01 8.7811742574302809e-01 1.0099069907630984e+01 1.1194295138043065e+01 1 -2 0
2429 444 1 4.1499999999999998e-01 4.7843808168692592e-01 1.0299667301324908e+01 8.5909113278072375e+00 1 -1 0
1703 444 1 4.1499999999999998e-01 1.7763731544485790e+00 1.0850751777423858e+01 1.2153464593765158e+01 1 -2 0
2568 444 1 4.1499999999999998e-01 1.4162796160459497e+00 1.0247365808474763e+01 1.7717852742942355e+01 -3 -4 0
2567 444 1 4.1499999999999998e-01 1.6871201501573903e+00 9.3218358091729865e+00 1.8884872413068294e+01 -3 -4 0
3099 444 4 0.0000000000000000e+00 1.6560500000000000e+00 1.3380500000000000e+01 1.8169999999999999e+00 0 0 0
3114 444 4 0.0000000000000000e+00 1.6560500000000000e+00 1.5197450000000000e+01 0.0000000000000000e+00 0 0 0
3115 444 4 0.0000000000000000e+00 1.6566500000000000e+00 1.5201420000000001e+01 3.5734499999999998e+00 0 0 0
1474 444 2 -8.2999999999999996e-01 2.0158395404459942e-01 1.5633927266245056e+01 7.4721099769802537e+00 -2 -1 0
1241 444 1 4.1499999999999998e-01 1.5600161211594419e+00 1.4832317850160456e+01 6.6211461714193085e+00 1 -4 0
2145 444 1 4.1499999999999998e-01 9.7033386143275435e-01 1.3535369234090766e+01 1.0957598848490049e+01 2 1 0
2503 444 2 -8.2999999999999996e-01 8.2144545321031359e-01 1.4589887005276371e+01 1.2248961610077421e+01 -2 1 0
2143 444 2 -8.2999999999999996e-01 1.3068562893669935e+00 1.3248402584471053e+01 1.0108696854401121e+01 2 1 0
2838 444 1 4.1499999999999998e-01 5.6115713750807306e-01 1.6297446606282051e+01 1.4637676000228101e+01 3 1 0
2505 444 1 4.1499999999999998e-01 1.6154072377930928e+00 1.5016304910238707e+01 1.2571489834050407e+01 -2 1 0
2504 444 1 4.1499999999999998e-01 1.0793791422493411e-01 1.5030873519230633e+01 1.2710123652478481e+01 -2 1 0
895 444 2 -8.2999999999999996e-01 1.9775809448717041e-02 1.4648844200807698e+01 1.7848533785236807e+01 0 1 0
897 444 1 4.1499999999999998e-01 7.3939444876702165e-01 1.4415780556362607e+01 1.7261964847901631e+01 0 1 0
3117 444 4 0.0000000000000000e+00 1.6560500000000000e+00 1.7014299999999999e+01 1.8169999999999999e+00 0 0 0
3134 444 4 0.0000000000000000e+00 1.6560500000000000e+00 1.8831250000000001e+01 0.0000000000000000e+00 0 0 0
3135 444 4 0.0000000000000000e+00 1.6787600000000000e+00 1.8849519999999998e+01 3.5819899999999998e+00 0 0 0
2874 444 1 4.1499999999999998e-01 1.3532695017055656e+00 1.9427029045864408e+01 6.5402851578982810e+00 -5 0 0
2872 444 2 -8.2999999999999996e-01 4.7978187954273416e-01 1.9703562102689435e+01 6.2631918713145653e+00 -5 0 0
1476 444 1 4.1499999999999998e-01 5.4168150769338896e-01 1.6434214687712696e+01 7.8722423547661098e+00 -2 -1 0
2673 444 1 4.1499999999999998e-01 2.0038258280931989e+00 1.7394821073750620e+01 1.0155935465918800e+01 1 0 0
2799 444 1 4.1499999999999998e-01 6.0165897046243244e-01 1.9535344378718793e+01 1.4285141706910339e+01 1 -1 0
1872 444 1 4.1499999999999998e-01 3.0684113888507925e-01 2.0061877644882667e+01 9.8672878654749354e+00 2 4 0
2672 444 1 4.1499999999999998e-01 5.4219461882081932e-01 1.7091644829555076e+01 9.9037184045666589e+00 1 0 0
2797 444 2 -8.2999999999999996e-01 8.0879525950338060e-01 1.9628710550506852e+01 1.3355298120102310e+01 1 -1 0
2798 444 1 4.1499999999999998e-01 7.4549112850629284e-01 1.8740190572611358e+01 1.3004931622692059e+01 1 -1 0
2837 444 1 4.1499999999999998e-01 1.3693048514330728e+00 1.7245856533323970e+01 1.5497508186108304e+01 3 1 0
2836 444 2 -8.2999999999999996e-01 1.4317160036260357e+00 1.6685999458509805e+01 1.4723623689593785e+01 3 1 0
79 444 2 -8.2999999999999996e-01 5.0355262348143859e-01 1.9063454156161175e+01 1.5934766122457587e+01 3 -4 0
2671 444 2 -8.2999999999999996e-01 1.3482525588976342e+00 1.7354850714832093e+01 9.4596181616373887e+00 1 0 0
360 444 1 4.1499999999999998e-01 1.0289551581002851e+00 1.6711667455275062e+01 1.9664693600122899e+01 3 1 0
1658 444 1 4.1499999999999998e-01 1.8775174022666399e+00 2.0076475066680228e+01 1.9108614404217416e+01 0 1 0
80 444 1 4.1499999999999998e-01 1.1643645727228005e+00 1.9513998864418859e+01 1.6460664237169333e+01 3 -4 0
358 444 2 -8.2999999999999996e-01 7.7579995993177664e-02 1.6647095567200896e+01 1.9581341242641766e+01 3 1 0
3137 444 4 0.0000000000000000e+00 1.6560500000000000e+00 2.0648199999999999e+01 1.8169999999999999e+00 0 0 0
3157 444 4 0.0000000000000000e+00 1.6695199999999999e+00 2.2465330000000002e+01 3.5990700000000002e+00 0 0 0
3159 444 4 0.0000000000000000e+00 1.6560500000000000e+00 2.4282000000000000e+01 1.8169999999999999e+00 0 0 0
3168 444 4 0.0000000000000000e+00 1.6560500000000000e+00 2.2465050000000002e+01 0.0000000000000000e+00 0 0 0
1555 444 2 -8.2999999999999996e-01 3.7263131366960645e-01 2.2263306199329570e+01 7.0468716891418834e+00 2 -1 0
1557 444 1 4.1499999999999998e-01 1.1914211723462309e+00 2.2314486626348849e+01 7.5400204832365958e+00 2 -1 0
2873 444 1 4.1499999999999998e-01 5.0813741505850896e-01 2.0659673029253366e+01 6.2989643053737634e+00 -5 0 0
1556 444 1 4.1499999999999998e-01 1.1845050001195290e-01 2.3175691872383062e+01 6.9083920380881194e+00 2 -1 0
313 444 2 -8.2999999999999996e-01 6.4061113321263330e-01 2.3104997864885274e+01 1.5245652124570167e+01 3 2 0
1870 444 2 -8.2999999999999996e-01 9.6846586894265807e-01 2.0632752090424489e+01 1.0257912611825191e+01 2 4 0
315 444 1 4.1499999999999998e-01 1.2234610812069635e+00 2.3843574381436838e+01 1.5069520028339650e+01 3 2 0
1004 444 1 4.1499999999999998e-01 3.6694877231089607e-02 2.4090196648824204e+01 1.2402017163312049e+01 3 -4 0
1217 444 1 4.1499999999999998e-01 1.7287977879208296e+00 2.2316384338495748e+01 1.4081301337079143e+01 -1 -2 0
1103 444 1 4.1499999999999998e-01 2.0037050461166297e+00 2.1993699400297405e+01 9.2592991270581013e+00 1 0 0
1871 444 1 4.1499999999999998e-01 8.1481946362708957e-01 2.0568245552239592e+01 1.1200496294066841e+01 2 4 0
314 444 1 4.1499999999999998e-01 9.2977975511621747e-01 2.2767992492973242e+01 1.6093614775563402e+01 3 2 0
1447 444 2 -8.2999999999999996e-01 1.6794214509443004e+00 2.2591013133695860e+01 1.7597472780241432e+01 2 0 0
1448 444 1 4.1499999999999998e-01 1.7388230524445896e+00 2.3275361889862971e+01 1.8264083637243221e+01 2 0 0
3174 444 4 0.0000000000000000e+00 1.6560500000000000e+00 2.6098949999999999e+01 0.0000000000000000e+00 0 0 0
3175 444 4 0.0000000000000000e+00 1.6566500000000000e+00 2.6102920000000001e+01 3.5734499999999998e+00 0 0 0
3177 444 4 0.0000000000000000e+00 1.6560500000000000e+00 2.7915800000000001e+01 1.8169999999999999e+00 0 0 0
1054 444 2 -8.2999999999999996e-01 1.0594922604097099e+00 2.5227762477800070e+01 6.8739755066771178e+00 4 -2 0
1056 444 1 4.1499999999999998e-01 1.0992256278071342e+00 2.6164876661802619e+01 6.6830024629702818e+00 4 -2 0
1055 444 1 4.1499999999999998e-01 2.0385357506800342e-01 2.4951929385373070e+01 6.5452945550823696e+00 4 -2 0
1079 444 1 4.1499999999999998e-01 7.8221812193962981e-01 2.5436397200929505e+01 1.1400568287652950e+01 1 -2 0
1078 444 2 -8.2999999999999996e-01 9.3383015759118904e-01 2.5580181916726175e+01 1.2334684092695801e+01 1 -2 0
2230 444 2 -8.2999999999999996e-01 3.2359858368912603e-01 2.7554674398260321e+01 9.2130741589173297e+00 2 0 0
860 444 1 4.1499999999999998e-01 1.3424490760176255e+00 2.5186292018494523e+01 8.7285573858602685e+00 -3 -2 0
2231 444 1 4.1499999999999998e-01 8.3531447225977074e-01 2.7833690186656391e+01 8.4537788733890711e+00 2 0 0
861 444 1 4.1499999999999998e-01 2.7045984911176657e-01 2.5003934612134600e+01 9.7818757013080742e+00 -3 -2 0
859 444 2 -8.2999999999999996e-01 1.2109442826634660e+00 2.4904782131346938e+01 9.6339249372069258e+00 -3 -2 0
1080 444 1 4.1499999999999998e-01 4.4189463946092744e-01 2.6375730886197967e+01 1.2537989769470681e+01 1 -2 0
2177 444 1 4.1499999999999998e-01 1.9773487834279591e+00 2.5095023440775282e+01 1.3700943507587299e+01 4 2 0
2232 444 1 4.1499999999999998e-01 2.5229943744511429e-01 2.8339741290382818e+01 9.7560464374610145e+00 2 0 0
1446 444 1 4.1499999999999998e-01 1.4870503275664929e-01 2.5338702786835825e+01 1.8250095292988661e+01 -2 1 0
1445 444 1 4.1499999999999998e-01 7.8764862779236144e-01 2.6483538210332128e+01 1.7493128898862832e+01 -2 1 0
3194 444 4 0.0000000000000000e+00 1.6560500000000000e+00 2.9732749999999999e+01 0.0000000000000000e+00 0 0 0
3195 444 4 0.0000000000000000e+00 1.6787600000000000e+00 2.9751020000000000e+01 3.5819899999999998e+00 0 0 0
3197 444 4 0.0000000000000000e+00 1.6560500000000000e+00 3.1549700000000001e+01 1.8169999999999999e+00 0 0 0
985 444 2 -8.2999999999999996e-01 1.0633729028292485e+00 3.0769427145731910e+01 6.5274004162164125e+00 0 0 0
987 444 1 4.1499999999999998e-01 1.8727378566095103e+00 3.1217259838669854e+01 6.2812174308204183e+00 0 0 0
342 444 1 4.1499999999999998e-01 1.8578720415341503e+00 2.8948160813615466e+01 6.7225743186618914e+00 2 2 0
986 444 1 4.1499999999999998e-01 5.0680997620855939e-01 3.1460113305844665e+01 6.8871533142942782e+00 0 0 0
1183 444 2 -8.2999999999999996e-01 1.8279914606819077e+00 3.2100243546689114e+01 1.1756885087619164e+01 0 -4 0
1184 444 1 4.1499999999999998e-01 1.3361965373144207e+00 3.1985776242528274e+01 1.2570068150391602e+01 0 -4 0
516 444 1 4.1499999999999998e-01 6.2453210346997956e-01 3.0652204312574771e+01 1.6975216748320772e+01 0 -3 0
2932 444 2 -8.2999999999999996e-01 8.3050847973806385e-01 2.8976917097974397e+01 1.9276525412008439e+01 4 1 0
2934 444 1 4.1499999999999998e-01 1.1227488018853886e+00 2.9585875735290063e+01 1.8598294592925154e+01 4 1 0
2933 444 1 4.1499999999999998e-01 6.9519128249835749e-02 2.9403543462654181e+01 1.9670375481812631e+01 4 1 0
3038 444 4 0.0000000000000000e+00 3.4729999999999999e+00 6.6205000000000003e-01 1.8169999999999999e+00 0 0 0
3062 444 4 0.0000000000000000e+00 3.4674000000000000e+00 2.4639099999999998e+00 3.5997499999999998e+00 0 0 0
3063 444 4 0.0000000000000000e+00 3.4729999999999999e+00 2.4790000000000001e+00 0.0000000000000000e+00 0 0 0
1347 444 1 4.1499999999999998e-01 3.3069258395649950e+00 3.2969810685675056e+00 7.0424822271337923e+00 -2 -2 0
1345 444 2 -8.2999999999999996e-01 3.8093564588104880e+00 4.0337584762843468e+00 7.3902671546714558e+00 -2 -2 0
675 444 1 4.1499999999999998e-01 3.0355175507458019e+00 9.2690826728589115e-01 6.6528275933982295e+00 1 2 0
673 444 2 -8.2999999999999996e-01 2.4935524916374763e+00 1.6228576052938075e+00 7.0245265768633622e+00 1 2 0
674 444 1 4.1499999999999998e-01 2.3857863909583346e+00 1.3781343278724227e+00 7.9436177971210453e+00 1 2 0
1381 444 2 -8.2999999999999996e-01 2.1374291889704442e+00 8.8596220641874623e-01 9.6484275097606105e+00 -3 -5 0
1383 444 1 4.1499999999999998e-01 2.6363126052813817e+00 1.6423755363061905e+00 9.9569493427477074e+00 -3 -5 0
2851 444 2 -8.2999999999999996e-01 2.9003043208723764e+00 1.6821117054441626e+00 1.4442650225201948e+01 4 -2 0
820 444 2 -8.2999999999999996e-01 3.5764049909123083e+00 2.9518720455146918e+00 1.0373357820725362e+01 -2 0 0
2852 444 1 4.1499999999999998e-01 3.1600707084402693e+00 1.8268129135974651e+00 1.5352493513411444e+01 4 -2 0
2853 444 1 4.1499999999999998e-01 2.8248397811432664e+00 7.3122568737301652e-01 1.4362946157071960e+01 4 -2 0
822 444 1 4.1499999999999998e-01 3.9244029049249534e+00 2.9468006917458198e+00 1.1265043965873812e+01 -2 0 0
821 444 1 4.1499999999999998e-01 3.7385224286193863e+00 3.8408039103661364e+00 1.0057525144885883e+01 -2 0 0
2776 444 2 -8.2999999999999996e-01 3.4093138744346705e+00 2.4492788299748462e+00 1.6996354634563975e+01 -2 1 0
2778 444 1 4.1499999999999998e-01 3.5151758917475204e+00 3.1775282978129402e+00 1.7608464145480319e+01 -2 1 0
1390 444 2 -8.2999999999999996e-01 3.2735193627796084e+00 3.2096793083058075e+00 1.9966168048126569e+01 2 0 0
2690 444 1 4.1499999999999998e-01 2.5147931275332542e+00 1.0693758918781695e+00 1.9358153720893824e+01 -3 4 0
2777 444 1 4.1499999999999998e-01 3.7469550892585608e+00 1.6880527432526438e+00 1.7468335034922731e+01 -2 1 0
2689 444 2 -8.2999999999999996e-01 2.0841689089635227e+00 2.2398038345912119e-01 1.9485045935984907e+01 -3 4 0
3052 444 4 0.0000000000000000e+00 3.4729999999999999e+00 6.1128000000000000e+00 0.0000000000000000e+00 0 0 0
3053 444 4 0.0000000000000000e+00 3.4737100000000001e+00 6.1134700000000004e+00 3.5873800000000000e+00 0 0 0
3056 444 4 0.0000000000000000e+00 3.4729999999999999e+00 4.2959500000000004e+00 1.8169999999999999e+00 0 0 0
3076 444 4 0.0000000000000000e+00 3.4729999999999999e+00 7.9297500000000003e+00 1.8169999999999999e+00 0 0 0
1346 444 1 4.1499999999999998e-01 3.1513011559327131e+00 4.6126366789204214e+00 7.7750984008919426e+00 -2 -2 0
625 444 2 -8.2999999999999996e-01 2.8473988465664721e+00 7.9673513685169439e+00 7.6055920049636843e+00 -1 1 0
626 444 1 4.1499999999999998e-01 3.6013198026662514e+00 7.5217548238055878e+00 7.2192259382550716e+00 -1 1 0
2829 444 1 4.1499999999999998e-01 2.7602939614214903e+00 5.6892770832856820e+00 1.5540702917730327e+01 -2 0 0
2988 444 1 4.1499999999999998e-01 2.0823096485052228e+00 7.3335376305355711e+00 1.4328488173656398e+01 2 1 0
1214 444 1 4.1499999999999998e-01 2.7384780224951020e+00 6.1370472030026946e+00 1.1384704067998346e+01 1 2 0
2986 444 2 -8.2999999999999996e-01 2.0464205082101881e+00 6.3832860117692256e+00 1.4219100689271475e+01 2 1 0
1836 444 1 4.1499999999999998e-01 4.0001395918216076e+00 7.6975331815259107e+00 1.0820545324846899e+01 4 5 0
2987 444 1 4.1499999999999998e-01 2.0898319752635803e+00 6.2488857616470810e+00 1.3272378008698901e+01 2 1 0
2827 444 2 -8.2999999999999996e-01 2.9193792438630788e+00 5.3875294143163650e+00 1.6435058582483396e+01 -2 0 0
2828 444 1 4.1499999999999998e-01 2.0580510362130613e+00 5.1184356192936562e+00 1.6754329749835534e+01 -2 0 0
3072 444 4 0.0000000000000000e+00 3.4729999999999999e+00 9.7467000000000006e+00 0.0000000000000000e+00 0 0 0
3073 444 4 0.0000000000000000e+00 3.4734200000000000e+00 9.7588500000000007e+00 3.5988799999999999e+00 0 0 0
3098 444 4 0.0000000000000000e+00 3.4729999999999999e+00 1.1563549999999999e+01 1.8169999999999999e+00 0 0 0
627 444 1 4.1499999999999998e-01 3.2278537471729476e+00 8.6724895831732471e+00 8.1292960648271571e+00 -1 1 0
2854 444 2 -8.2999999999999996e-01 2.3616509980876552e+00 8.9577486738739740e+00 1.4160755265194528e+01 -1 -1 0
207 444 1 4.1499999999999998e-01 3.6214505025995041e+00 1.2077144454582394e+01 1.2046501532940516e+01 -1 -1 0
205 444 2 -8.2999999999999996e-01 3.4023490156025007e+00 1.1159934590645038e+01 1.1882329664591728e+01 -1 -1 0
206 444 1 4.1499999999999998e-01 3.9289403057688865e+00 1.0670566778594981e+01 1.2514352255190591e+01 -1 -1 0
1510 444 2 -8.2999999999999996e-01 2.3666987698246351e+00 1.1879873564713932e+01 1.4897261593350892e+01 -2 3 0
2855 444 1 4.1499999999999998e-01 2.5730203515476058e+00 9.6333488281673905e+00 1.4805052577294985e+01 -1 -1 0
369 444 1 4.1499999999999998e-01 3.6290057548350023e+00 1.0090823730819169e+01 1.0404771055050686e+01 3 -1 0
2856 444 1 4.1499999999999998e-01 2.1490463684140919e+00 9.4439681605782582e+00 1.3364123739198163e+01 -1 -1 0
367 444 2 -8.2999999999999996e-01 4.0760598946726256e+00 9.5501899916722603e+00 9.7535488989519976e+00 3 -1 0
2280 444 1 4.1499999999999998e-01 3.4912596936027267e+00 1.0389930266438734e+01 1.7439638306923019e+01 -2 -8 0
2279 444 1 4.1499999999999998e-01 3.5760582184828906e+00 1.1099644152606396e+01 1.6105093239942743e+01 -2 -8 0
2566 444 2 -8.2999999999999996e-01 2.1281301352055975e+00 9.8491804548949311e+00 1.8218801807218263e+01 -3 -4 0
3116 444 4 0.0000000000000000e+00 3.4729999999999999e+00 1.5197450000000000e+01 1.8169999999999999e+00 0 0 0
3122 444 4 0.0000000000000000e+00 3.4674000000000000e+00 1.3365410000000001e+01 3.5997499999999998e+00 0 0 0
3123 444 4 0.0000000000000000e+00 3.4729999999999999e+00 1.3380500000000000e+01 0.0000000000000000e+00 0 0 0
1764 444 1 4.1499999999999998e-01 3.1535135920936130e+00 1.3431037602870280e+01 6.5731517713283214e+00 4 0 0
1242 444 1 4.1499999999999998e-01 2.7776743062484686e+00 1.5730551787256916e+01 6.6699253566527199e+00 1 -4 0
1240 444 2 -8.2999999999999996e-01 2.4098392167499880e+00 1.4978627674948260e+01 6.2056634796150352e+00 1 -4 0
1762 444 2 -8.2999999999999996e-01 3.1976339068598194e+00 1.2514194907076732e+01 6.8446026861181366e+00 4 0 0
2144 444 1 4.1499999999999998e-01 2.2553201195519366e+00 1.3357805390944913e+01 1.0177101291134138e+01 2 1 0
594 444 1 4.1499999999999998e-01 4.0151204264517641e+00 1.4149415418844562e+01 1.3331120409761054e+01 -1 -1 0
1375 444 2 -8.2999999999999996e-01 3.6414198667958639e+00 1.6034657797499197e+01 1.3195669259096780e+01 -5 -1 0
522 444 1 4.1499999999999998e-01 3.1984249749125686e+00 1.3037923385437299e+01 8.6878154935111880e+00 -1 0 0
520 444 2 -8.2999999999999996e-01 3.8859791755907653e+00 1.3349693411501901e+01 9.2762885332834877e+00 -1 0 0
1511 444 1 4.1499999999999998e-01 2.7476448746210091e+00 1.2333923501066337e+01 1.4145629470262962e+01 -2 3 0
1376 444 1 4.1499999999999998e-01 3.4028557015375185e+00 1.6307419014505545e+01 1.2309712014484587e+01 -5 -1 0
1757 444 1 4.1499999999999998e-01 2.9569115183435009e+00 1.4931987883701410e+01 1.9295486674703373e+01 -1 5 0
1758 444 1 4.1499999999999998e-01 2.7324272101398357e+00 1.3835634372427950e+01 1.8275922696914780e+01 -1 5 0
1756 444 2 -8.2999999999999996e-01 3.0177671352951583e+00 1.3984042449620830e+01 1.9177470218114095e+01 -1 5 0
2770 444 2 -8.2999999999999996e-01 2.4717035242078520e+00 1.3930725212060745e+01 1.6707480321145731e+01 2 3 0
2771 444 1 4.1499999999999998e-01 2.5242435641328447e+00 1.3135556506433531e+01 1.6177217149831474e+01 2 3 0
2772 444 1 4.1499999999999998e-01 3.0201119020667355e+00 1.4564343791934656e+01 1.6244870644664914e+01 2 3 0
3112 444 4 0.0000000000000000e+00 3.4729999999999999e+00 1.7014299999999999e+01 0.0000000000000000e+00 0 0 0
3113 444 4 0.0000000000000000e+00 3.4737100000000001e+00 1.7014970000000002e+01 3.5873800000000000e+00 0 0 0
3136 444 4 0.0000000000000000e+00 3.4729999999999999e+00 1.8831250000000001e+01 1.8169999999999999e+00 0 0 0
2251 444 2 -8.2999999999999996e-01 2.6286366939823340e+00 1.8837419341892556e+01 7.4973886133683818e+00 7 5 0
2253 444 1 4.1499999999999998e-01 3.1441776156620245e+00 1.8120779479247915e+01 7.1274201176781640e+00 7 5 0
1045 444 2 -8.2999999999999996e-01 3.4228779909234439e+00 1.7546470760734280e+01 1.1049676090395554e+01 2 3 0
1047 444 1 4.1499999999999998e-01 3.8634307657498907e+00 1.7250581287969897e+01 1.0253061286385529e+01 2 3 0
1377 444 1 4.1499999999999998e-01 2.9263495119722323e+00 1.6354266686594300e+01 1.3745902233218834e+01 -5 -1 0
2252 444 1 4.1499999999999998e-01 2.2175043158481311e+00 1.8460584598303768e+01 8.2753330946493477e+00 7 5 0
1009 444 2 -8.2999999999999996e-01 2.9970780343804866e+00 1.6650899566837765e+01 1.9651046272312424e+01 6 3 0
1571 444 1 4.1499999999999998e-01 3.2371346672414560e+00 1.8990615065331998e+01 1.6813888278481585e+01 -1 0 0
1570 444 2 -8.2999999999999996e-01 2.7539937206064065e+00 1.9580368592544531e+01 1.7392678139736745e+01 -1 0 0
1572 444 1 4.1499999999999998e-01 3.2292929741931076e+00 2.0409638080191659e+01 1.7341342012200677e+01 -1 0 0
1010 444 1 4.1499999999999998e-01 3.4732689524930578e+00 1.6889579618089442e+01 1.8855743913405249e+01 6 3 0
3132 444 4 0.0000000000000000e+00 3.4729999999999999e+00 2.0648199999999999e+01 0.0000000000000000e+00 0 0 0
3133 444 4 0.0000000000000000e+00 3.4734200000000000e+00 2.0660350000000001e+01 3.5988799999999999e+00 0 0 0
3158 444 4 0.0000000000000000e+00 3.4729999999999999e+00 2.2465050000000002e+01 1.8169999999999999e+00 0 0 0
3182 444 4 0.0000000000000000e+00 3.4674000000000000e+00 2.4266909999999999e+01 3.5997499999999998e+00 0 0 0
3183 444 4 0.0000000000000000e+00 3.4729999999999999e+00 2.4282000000000000e+01 0.0000000000000000e+00 0 0 0
1343 444 1 4.1499999999999998e-01 3.2622092238018991e+00 2.3598252353168949e+01 6.5791491809941745e+00 0 0 0
1507 444 2 -8.2999999999999996e-01 3.1473518625893360e+00 2.1541026481198237e+01 6.8990320052303771e+00 1 1 0
1509 444 1 4.1499999999999998e-01 3.2260149631919495e+00 2.1859514965952346e+01 7.7982595001909889e+00 1 1 0
1508 444 1 4.1499999999999998e-01 2.6528131013590479e+00 2.0725081684518713e+01 6.9758266048655644e+00 1 1 0
1102 444 2 -8.2999999999999996e-01 2.6296175907772268e+00 2.2699920291444908e+01 9.0989332302388846e+00 1 0 0
1216 444 2 -8.2999999999999996e-01 2.3156894670139332e+00 2.1891020789870712e+01 1.3456116145905931e+01 -1 -2 0
1218 444 1 4.1499999999999998e-01 2.1192151126951040e+00 2.0957886522256661e+01 1.3539127003543648e+01 -1 -2 0
1104 444 1 4.1499999999999998e-01 2.3276918172091166e+00 2.3418852021539166e+01 9.6540996701412567e+00 1 0 0
1449 444 1 4.1499999999999998e-01 2.5234204298603355e+00 2.2141398810086837e+01 1.7639239813018282e+01 2 0 0
3172 444 4 0.0000000000000000e+00 3.4729999999999999e+00 2.7915800000000001e+01 0.0000000000000000e+00 0 0 0
3173 444 4 0.0000000000000000e+00 3.4737100000000001e+00 2.7916470000000000e+01 3.5873800000000000e+00 0 0 0
3176 444 4 0.0000000000000000e+00 3.4729999999999999e+00 2.6098949999999999e+01 1.8169999999999999e+00 0 0 0
341 444 1 4.1499999999999998e-01 3.0608157366237063e+00 2.8073051082291524e+01 7.0036521508138527e+00 2 2 0
340 444 2 -8.2999999999999996e-01 2.1092955415910382e+00 2.8042582001964877e+01 6.9040834537969626e+00 2 2 0
1344 444 1 4.1499999999999998e-01 2.5685743713044102e+00 2.4943630646978278e+01 6.5522589455125022e+00 0 0 0
1342 444 2 -8.2999999999999996e-01 3.4181021032459618e+00 2.4533075991493160e+01 6.7134400236071494e+00 0 0 0
1308 444 1 4.1499999999999998e-01 3.0755193925483120e+00 2.8590384070055155e+01 1.4788238295329725e+01 0 2 0
2176 444 2 -8.2999999999999996e-01 2.3444085428850485e+00 2.5016731551995306e+01 1.4581494106649894e+01 4 2 0
2178 444 1 4.1499999999999998e-01 3.2385507715029593e+00 2.5348329996478061e+01 1.4499129245167547e+01 4 2 0
1061 444 1 4.1499999999999998e-01 4.0592451890032510e+00 2.8558517730759224e+01 8.8451575793899924e+00 -1 -1 0
1914 444 1 4.1499999999999998e-01 2.8988675461871996e+00 2.6038927396102874e+01 1.1581095699097267e+01 4 -1 0
1060 444 2 -8.2999999999999996e-01 3.7142022077880967e+00 2.8160244505845089e+01 9.6442550022073785e+00 -1 -1 0
1062 444 1 4.1499999999999998e-01 3.8618167235255934e+00 2.7221705559902627e+01 9.5276898894409765e+00 -1 -1 0
1912 444 2 -8.2999999999999996e-01 3.7047139584460411e+00 2.5565959130679218e+01 1.1788807675620163e+01 4 -1 0
1306 444 2 -8.2999999999999996e-01 3.6790845462186703e+00 2.8511389693322130e+01 1.4049522666086148e+01 0 2 0
791 444 1 4.1499999999999998e-01 3.4785090312733233e+00 2.4633307313992571e+01 1.8789837299738881e+01 0 -1 0
790 444 2 -8.2999999999999996e-01 2.5847673639298914e+00 2.4900565631049552e+01 1.9004384626709445e+01 0 -1 0
792 444 1 4.1499999999999998e-01 2.6833665783049674e+00 2.5758676417524601e+01 1.9416884060365167e+01 0 -1 0
3192 444 4 0.0000000000000000e+00 3.4729999999999999e+00 3.1549700000000001e+01 0.0000000000000000e+00 0 0 0
3193 444 4 0.0000000000000000e+00 3.4734200000000000e+00 3.1561850000000000e+01 3.5988799999999999e+00 0 0 0
3196 444 4 0.0000000000000000e+00 3.4729999999999999e+00 2.9732749999999999e+01 1.8169999999999999e+00 0 0 0
1276 444 2 -8.2999999999999996e-01 3.9892827104724153e+00 3.2206108177975153e+01 6.4566766632724297e+00 3 -1 0
1278 444 1 4.1499999999999998e-01 4.0494804959530031e+00 3.1507439695873728e+01 7.1081906564438944e+00 3 -1 0
1797 444 1 4.1499999999999998e-01 3.6805676834381256e+00 2.9276570257068624e+01 1.1129487586378064e+01 5 -1 0
1795 444 2 -8.2999999999999996e-01 3.6887701485907791e+00 2.9903258857132215e+01 1.1852969351067760e+01 5 -1 0
1796 444 1 4.1499999999999998e-01 3.5962566104589913e+00 2.9364169413394343e+01 1.2638498161079937e+01 5 -1 0
1116 444 1 4.1499999999999998e-01 3.7730072138142443e+00 3.1631339975459266e+01 1.4152559724570322e+01 -4 0 0
1115 444 1 4.1499999999999998e-01 3.0456599151171644e+00 3.1282455573671069e+01 1.5433629967192321e+01 -4 0 0
1400 444 1 4.1499999999999998e-01 2.7576738612359195e+00 3.2019837202243338e+01 9.3008104456968130e+00 2 -1 0
1399 444 2 -8.2999999999999996e-01 3.3593623135871700e+00 3.1335939859390930e+01 9.0067213720743151e+00 2 -1 0
1114 444 2 -8.2999999999999996e-01 3.0892715518334386e+00 3.1945205015737301e+01 1.4744359807371518e+01 -4 0 0