LAMMPS data file via write_data, version 11 Aug 2017, timestep = 1000000

3522 atoms
9 atom types
2024 bonds
5 bond types
1018 angles
5 angle types
12 dihedrals
4 dihedral types
9 impropers
1 improper types

0.0000000000000000e+00 3.2704500000000003e+01 xlo xhi
0.0000000000000000e+00 3.2704500000000003e+01 ylo yhi
0.0000000000000000e+00 8.0000000000000000e+01 zlo zhi

Masses

1 1.0079
2 15.9994
3 39.0983
4 63.546
5 12.011
6 15.9994
7 15.9994
8 15.9994
9 1.0079

Bond Coeffs # harmonic

1 450 0.9572
2 570 1.229
3 450 1.364
4 570 1.229
5 553 0.945

Angle Coeffs # harmonic

1 100 123.32
2 85 124
3 55 104.52
4 35 113
5 100 123.32

Dihedral Coeffs # charmm

1 0.922 1 180 0
2 3.741 2 0 0
3 0.922 1 0 0
4 3.741 2 180 0

Improper Coeffs # umbrella

1 21 0

Atoms # full

3049 444 4 0.0000000000000000e+00 1.6594700000000000e+00 6.5920999999999996e-01 3.5753400000000002e+00 0 0 0
3051 444 4 0.0000000000000000e+00 1.6560500000000000e+00 2.4790000000000001e+00 1.8169999999999999e+00 0 0 0
3060 444 4 0.0000000000000000e+00 1.6560500000000000e+00 6.6205000000000003e-01 0.0000000000000000e+00 0 0 0
1777 444 2 -8.2999999999999996e-01 1.6260925259091465e+00 2.4432324228014082e+00 6.3884745059020878e+00 -1 0 0
1778 444 1 4.1499999999999998e-01 8.1004814723025431e-01 2.1204079238766216e+00 6.7706901895204314e+00 -1 0 0
1779 444 1 4.1499999999999998e-01 1.5041796812661699e+00 3.3906704795322700e+00 6.3273955703708253e+00 -1 0 0
2773 444 2 -8.2999999999999996e-01 1.4047230138156814e+00 2.9491803777629446e+00 9.5043070635772740e+00 -1 -2 0
1370 444 1 4.1499999999999998e-01 4.8001672985901733e-01 1.6676941354035624e+00 1.2265722991766044e+01 -3 2 0
1369 444 2 -8.2999999999999996e-01 1.0745627328478460e+00 1.2802662154612414e+00 1.1623346110422613e+01 -3 2 0
2395 444 2 -8.2999999999999996e-01 1.3239684894584078e+00 3.2357274355778083e+00 1.4089928754843635e+01 3 -1 0
1371 444 1 4.1499999999999998e-01 1.7448599623590035e+00 8.4398031219628045e-01 1.2149262860961199e+01 -3 2 0
2396 444 1 4.1499999999999998e-01 8.8464691928499750e-01 2.5791582053510851e+00 1.4630433720020870e+01 3 -1 0
2774 444 1 4.1499999999999998e-01 1.3417046122495260e+00 2.2667536284622667e+00 1.0172555221388398e+01 -1 -2 0
110 444 1 4.1499999999999998e-01 1.5112638323698975e+00 3.4558988122347527e+00 1.7004332102191526e+01 0 1 0
109 444 2 -8.2999999999999996e-01 1.3502299827842794e+00 3.6688078089993441e+00 1.7923554616093803e+01 0 1 0
3066 444 4 0.0000000000000000e+00 1.6560500000000000e+00 4.2959500000000004e+00 0.0000000000000000e+00 0 0 0
3067 444 4 0.0000000000000000e+00 1.6457500000000000e+00 4.3038999999999996e+00 3.5737800000000002e+00 0 0 0
3069 444 4 0.0000000000000000e+00 1.6560500000000000e+00 6.1128000000000000e+00 1.8169999999999999e+00 0 0 0
3086 444 4 0.0000000000000000e+00 1.6560500000000000e+00 7.9297500000000003e+00 0.0000000000000000e+00 0 0 0
3087 444 4 0.0000000000000000e+00 1.6436400000000000e+00 7.9178800000000003e+00 3.5731700000000002e+00 0 0 0
979 444 2 -8.2999999999999996e-01 1.8351515620380652e+00 5.3831878627788354e+00 6.6540053593387256e+00 3 4 0
981 444 1 4.1499999999999998e-01 1.4851128604144395e+00 6.2653394198030128e+00 6.5294504969137854e+00 3 4 0
2405 444 1 4.1499999999999998e-01 4.8091902777366941e-01 5.7984070042380456e+00 9.7830246413471205e+00 -1 -5 0
706 444 2 -8.2999999999999996e-01 1.0821298209281711e+00 5.5217009695504879e+00 1.2579530153624306e+01 -1 1 0
708 444 1 4.1499999999999998e-01 1.5260767216042442e-01 5.7491193152391631e+00 1.2557138145218739e+01 -1 1 0
2406 444 1 4.1499999999999998e-01 2.9017263310607844e-01 4.3176592265030553e+00 9.5322316630614736e+00 -1 -5 0
707 444 1 4.1499999999999998e-01 1.1209023541330212e+00 4.7216775011880774e+00 1.3103640115057747e+01 -1 1 0
1505 444 1 4.1499999999999998e-01 1.8841546240495277e+00 6.7821370672663717e+00 1.1893464878244805e+01 2 -1 0
1561 444 2 -8.2999999999999996e-01 1.2426940206720090e+00 6.8440704535523240e+00 1.9568449197497227e+01 1 3 0
1563 444 1 4.1499999999999998e-01 1.2407869269663467e+00 7.7944423607049540e+00 1.9682564261879310e+01 1 3 0
1562 444 1 4.1499999999999998e-01 6.9847439786455545e-01 6.6940873249196198e+00 1.8795427571101964e+01 1 3 0
3089 444 4 0.0000000000000000e+00 1.6560500000000000e+00 9.7467000000000006e+00 1.8169999999999999e+00 0 0 0
3103 444 4 0.0000000000000000e+00 1.6594700000000000e+00 1.1560710000000000e+01 3.5753400000000002e+00 0 0 0
3114 444 4 0.0000000000000000e+00 1.6560500000000000e+00 1.1563549999999999e+01 0.0000000000000000e+00 0 0 0
718 444 2 -8.2999999999999996e-01 1.0687529777162230e+00 1.1525306820393093e+01 7.0592215711117845e+00 -2 -2 0
719 444 1 4.1499999999999998e-01 1.9739677340913990e+00 1.1376487038142916e+01 6.7859600809041654e+00 -2 -2 0
2109 444 1 4.1499999999999998e-01 9.6825118050405967e-01 8.7968459624808357e+00 6.5921074862217575e+00 1 2 0
720 444 1 4.1499999999999998e-01 5.8046210716322499e-01 1.0794334558417445e+01 6.6804277979258329e+00 -2 -2 0
2107 444 2 -8.2999999999999996e-01 1.7930479730350666e+00 8.4160456252448590e+00 6.8936596539424411e+00 1 2 0
2108 444 1 4.1499999999999998e-01 1.6760123497694601e+00 8.3066095205293990e+00 7.8373537522782497e+00 1 2 0
1069 444 2 -8.2999999999999996e-01 1.5779928808893344e+00 1.1372918459879772e+01 9.7566987480961433e+00 3 7 0
2817 444 1 4.1499999999999998e-01 9.9896363428731594e-01 9.5790103715365245e+00 9.6583685564027295e+00 4 5 0
1300 444 2 -8.2999999999999996e-01 7.9915983853533434e-02 9.8264957820870293e+00 1.2947516542953922e+01 -4 1 0
1302 444 1 4.1499999999999998e-01 1.8505912083888032e-01 1.0728906746529738e+01 1.2646134012618811e+01 -4 1 0
1658 444 1 4.1499999999999998e-01 6.7010240805829846e-01 1.1738632544434228e+01 1.1094051941219872e+01 0 0 0
1183 444 2 -8.2999999999999996e-01 1.1658711682884737e+00 8.8373709093132344e+00 1.5122715051428642e+01 0 1 0
1184 444 1 4.1499999999999998e-01 8.3705882744394788e-01 9.0962954743125266e+00 1.4261859374843828e+01 0 1 0
2815 444 2 -8.2999999999999996e-01 9.4195462187502388e-01 8.6711430068078368e+00 9.3604445066894595e+00 4 5 0
1794 444 1 4.1499999999999998e-01 1.3479218464395815e+00 1.2022427635498982e+01 1.5512747969339342e+01 3 3 0
1071 444 1 4.1499999999999998e-01 1.3895410606721748e+00 1.1379368257333466e+01 8.8182551862548983e+00 3 7 0
1657 444 2 -8.2999999999999996e-01 1.6793890983771803e-01 1.2078090645073466e+01 1.1834883937281925e+01 0 0 0
1793 444 1 4.1499999999999998e-01 1.7559771493828047e+00 1.0603478370560634e+01 1.5178128985964433e+01 3 3 0
1792 444 2 -8.2999999999999996e-01 2.0230813449237135e+00 1.1515287131967632e+01 1.5061969670446326e+01 3 3 0
1185 444 1 4.1499999999999998e-01 3.8540173929531379e-01 8.5666077641606275e+00 1.5606229961969630e+01 0 1 0
2816 444 1 4.1499999999999998e-01 1.5316378076469339e+00 8.1904583434782250e+00 9.9413471949940178e+00 4 5 0
2729 444 1 4.1499999999999998e-01 1.7238740921734528e+00 1.0138848850476506e+01 1.9354962335015777e+01 6 0 0
2728 444 2 -8.2999999999999996e-01 9.4909261470339989e-01 9.7183359161238574e+00 1.9727942986873142e+01 6 0 0
2730 444 1 4.1499999999999998e-01 2.3908989520744378e-01 1.0340754293153326e+01 1.9570706243759165e+01 6 0 0
3105 444 4 0.0000000000000000e+00 1.6560500000000000e+00 1.3380500000000000e+01 1.8169999999999999e+00 0 0 0
3120 444 4 0.0000000000000000e+00 1.6560500000000000e+00 1.5197450000000000e+01 0.0000000000000000e+00 0 0 0
3121 444 4 0.0000000000000000e+00 1.6457500000000000e+00 1.5205399999999999e+01 3.5737800000000002e+00 0 0 0
1199 444 1 4.1499999999999998e-01 1.5996767728849333e+00 1.3843559273417720e+01 6.6983834474739403e+00 -1 2 0
2041 444 1 4.1499999999999998e-01 4.8510763856470113e-01 1.5498900171057857e+01 6.5477390819398886e+00 3 -1 0
3043 444 9 3.5999999999999999e-01 2.0182887138105090e+00 1.5830568154459652e+01 1.5223461967017865e+01 0 -3 0
3042 444 8 -7.8000000000000003e-01 1.4114956632172539e+00 1.6041939680700366e+01 1.4503913948418576e+01 0 -3 0
562 444 2 -8.2999999999999996e-01 1.6085386624183413e+00 1.4462627731370691e+01 1.2487774366368461e+01 1 4 0
1555 444 2 -8.2999999999999996e-01 1.8790349354158284e-01 1.4722083745262305e+01 9.1758914851024915e+00 -2 -1 0
564 444 1 4.1499999999999998e-01 1.2521762233451668e+00 1.4574492815749602e+01 1.3369094230400423e+01 1 4 0
1556 444 1 4.1499999999999998e-01 9.0449089109720972e-03 1.5579878966091584e+01 8.7906262227059564e+00 -2 -1 0
563 444 1 4.1499999999999998e-01 1.1589440172004113e+00 1.3690995575757528e+01 1.2143273558957942e+01 1 4 0
2273 444 1 4.1499999999999998e-01 9.3771640086438168e-01 1.5710851941508958e+01 1.0420413810994512e+01 1 -1 0
1557 444 1 4.1499999999999998e-01 1.3392398540833104e-02 1.4100500027677787e+01 8.4692006865800895e+00 -2 -1 0
2274 444 1 4.1499999999999998e-01 1.1637499471490209e+00 1.6206438177974992e+01 1.1832928740654063e+01 1 -1 0
2493 444 1 4.1499999999999998e-01 1.0779536848533668e+00 1.4646962590889027e+01 1.8522422482156855e+01 -2 -1 0
2491 444 2 -8.2999999999999996e-01 9.3255383910843548e-01 1.5383988390296064e+01 1.9115621810264017e+01 -2 -1 0
125 444 1 4.1499999999999998e-01 9.2108714684671500e-01 1.2803678046837842e+01 1.7344798834994400e+01 -1 1 0
2492 444 1 4.1499999999999998e-01 7.2254190326072920e-01 1.4977527067824839e+01 1.9956405004418922e+01 -2 -1 0
124 444 2 -8.2999999999999996e-01 1.6127808696724983e+00 1.3315970534751470e+01 1.7763546122806197e+01 -1 1 0
3123 444 4 0.0000000000000000e+00 1.6560500000000000e+00 1.7014299999999999e+01 1.8169999999999999e+00 0 0 0
3140 444 4 0.0000000000000000e+00 1.6560500000000000e+00 1.8831250000000001e+01 0.0000000000000000e+00 0 0 0
3141 444 4 0.0000000000000000e+00 1.6436400000000000e+00 1.8819379999999999e+01 3.5731700000000002e+00 0 0 0
2043 444 1 4.1499999999999998e-01 1.2369640555829475e+00 1.6809595035187279e+01 6.6409387326880402e+00 3 -1 0
968 444 1 4.1499999999999998e-01 7.1339239584753422e-01 1.9943955482023384e+01 7.0340776321459684e+00 3 -4 0
2039 444 2 -8.2999999999999996e-01 4.0277736833123373e-01 1.6397782966571565e+01 6.8662726747658258e+00 3 -1 0
901 444 2 -8.2999999999999996e-01 1.1698886483876609e+00 2.0100045835211837e+01 1.5943901371216226e+01 -1 0 0
797 444 1 4.1499999999999998e-01 1.7214574947867225e+00 1.9194116082221296e+01 1.1620169153603488e+01 2 2 0
3040 444 6 -8.5999999999999999e-01 9.4868269048998233e-01 1.8224155287810337e+01 1.4343206833314333e+01 0 -3 0
798 444 1 4.1499999999999998e-01 8.9088022670650413e-01 1.8918300394507995e+01 1.2855467707238244e+01 2 2 0
902 444 1 4.1499999999999998e-01 1.0093810983618876e+00 1.9494097972468328e+01 1.5220508930757644e+01 -1 0 0
2272 444 2 -8.2999999999999996e-01 9.3719142323574967e-01 1.6506441460227453e+01 1.0952644039751535e+01 1 -1 0
796 444 2 -8.2999999999999996e-01 1.0084503094300616e+00 1.9552846312279407e+01 1.2148530158371933e+01 2 2 0
3039 444 5 1.0800000000000001e+00 5.5636330676655188e-01 1.7082638102025339e+01 1.4556683373902072e+01 0 -3 0
1805 444 1 4.1499999999999998e-01 2.0183743225421429e+00 1.7692087747200198e+01 1.0339790416612972e+01 2 -1 0
903 444 1 4.1499999999999998e-01 3.8168013611756035e-01 2.0043137191104179e+01 1.6484013085009462e+01 -1 0 0
313 444 2 -8.2999999999999996e-01 8.9745762322740719e-01 1.9816802683020946e+01 1.9321037226686705e+01 1 -1 0
314 444 1 4.1499999999999998e-01 1.8483559890302997e-01 1.9802270873269421e+01 1.8682138770230871e+01 1 -1 0
746 444 1 4.1499999999999998e-01 1.9924324888913778e+00 1.8226895685390037e+01 1.8271328062751664e+01 4 -2 0
3143 444 4 0.0000000000000000e+00 1.6560500000000000e+00 2.0648199999999999e+01 1.8169999999999999e+00 0 0 0
3157 444 4 0.0000000000000000e+00 1.6594700000000000e+00 2.2462209999999999e+01 3.5753400000000002e+00 0 0 0
3159 444 4 0.0000000000000000e+00 1.6560500000000000e+00 2.4282000000000000e+01 1.8169999999999999e+00 0 0 0
3168 444 4 0.0000000000000000e+00 1.6560500000000000e+00 2.2465050000000002e+01 0.0000000000000000e+00 0 0 0
680 444 1 4.1499999999999998e-01 8.6102970189864769e-01 2.3153414257171260e+01 6.4440673604268444e+00 1 -2 0
679 444 2 -8.2999999999999996e-01 3.8976581364418936e-02 2.3627717619526283e+01 6.5685540294375944e+00 1 -2 0
1568 444 1 4.1499999999999998e-01 1.7654411935117281e-01 2.4410643825921067e+01 9.5203216024422765e+00 -1 3 0
2607 444 1 4.1499999999999998e-01 1.5701482508830582e+00 2.1389238835150685e+01 1.3506009652498374e+01 1 -6 0
2605 444 2 -8.2999999999999996e-01 1.2910991105332725e+00 2.2297194540735948e+01 1.3624246342352611e+01 1 -6 0
2606 444 1 4.1499999999999998e-01 1.4292636238781284e+00 2.2471421492574457e+01 1.4555260771506774e+01 1 -6 0
2487 444 1 4.1499999999999998e-01 1.2701887826506562e+00 2.1394014639785318e+01 1.9680221622818557e+01 3 -4 0
2485 444 2 -8.2999999999999996e-01 1.3081261599188247e+00 2.2306335928914265e+01 1.9967384874660063e+01 3 -4 0
1725 444 1 4.1499999999999998e-01 1.8658224952911224e+00 2.3099860710699108e+01 1.8669072349671428e+01 2 4 0
3174 444 4 0.0000000000000000e+00 1.6560500000000000e+00 2.6098949999999999e+01 0.0000000000000000e+00 0 0 0
3175 444 4 0.0000000000000000e+00 1.6457500000000000e+00 2.6106900000000000e+01 3.5737800000000002e+00 0 0 0
3177 444 4 0.0000000000000000e+00 1.6560500000000000e+00 2.7915800000000001e+01 1.8169999999999999e+00 0 0 0
2322 444 1 4.1499999999999998e-01 1.5921701916689937e+00 2.8503919358777580e+01 7.4575706339946217e+00 -2 -5 0
1538 444 1 4.1499999999999998e-01 1.4041600545287445e+00 2.5184574142322660e+01 6.4992946446973043e+00 1 -2 0
1537 444 2 -8.2999999999999996e-01 2.0341530609790253e+00 2.5622137074397877e+01 7.0719025203660957e+00 1 -2 0
2122 444 2 -8.2999999999999996e-01 2.7184625080096531e-01 2.5861628668427720e+01 1.3730253075421500e+01 0 1 0
2124 444 1 4.1499999999999998e-01 1.1395037324799986e+00 2.6070825224745359e+01 1.4076142078966452e+01 0 1 0
964 444 2 -8.2999999999999996e-01 7.1516572133277390e-01 2.8021607194089661e+01 1.1542872208032632e+01 3 0 0
208 444 2 -8.2999999999999996e-01 6.0935536251383049e-01 2.8420296900731728e+01 1.5862232550469647e+01 1 -3 0
190 444 2 -8.2999999999999996e-01 1.3262712939521788e+00 2.4869642541378234e+01 1.0586749711028451e+01 2 -1 0
966 444 1 4.1499999999999998e-01 1.5896605897683895e+00 2.8405923556870327e+01 1.1481295684529398e+01 3 0 0
192 444 1 4.1499999999999998e-01 1.5776051466957397e+00 2.5785228280581013e+01 1.0465233551719521e+01 2 -1 0
209 444 1 4.1499999999999998e-01 1.5039187100156661e+00 2.8505709208766884e+01 1.5532546164356225e+01 1 -3 0
965 444 1 4.1499999999999998e-01 7.3059140812749745e-01 2.7519310800835544e+01 1.2357545368262942e+01 3 0 0
1954 444 2 -8.2999999999999996e-01 7.1711384674168233e-01 2.7279968499159899e+01 1.8185786450582313e+01 -2 2 0
210 444 1 4.1499999999999998e-01 7.0635787329391464e-01 2.7985955586418299e+01 1.6709681712298416e+01 1 -3 0
1956 444 1 4.1499999999999998e-01 6.0471420274142595e-01 2.7804666457538417e+01 1.8978434199587983e+01 -2 2 0
3194 444 4 0.0000000000000000e+00 1.6560500000000000e+00 2.9732749999999999e+01 0.0000000000000000e+00 0 0 0
3195 444 4 0.0000000000000000e+00 1.6436400000000000e+00 2.9720880000000001e+01 3.5731700000000002e+00 0 0 0
3197 444 4 0.0000000000000000e+00 1.6560500000000000e+00 3.1549700000000001e+01 1.8169999999999999e+00 0 0 0
534 444 1 4.1499999999999998e-01 1.3923791520699902e+00 3.1186107363200865e+01 7.0030102046908089e+00 2 1 0
1937 444 1 4.1499999999999998e-01 1.8758009427874328e-01 2.9579776759034118e+01 1.1687792414472298e+01 -2 0 0
1936 444 2 -8.2999999999999996e-01 1.8678706956959175e-02 3.0476019341647220e+01 1.1978401132205407e+01 -2 0 0
2690 444 1 4.1499999999999998e-01 8.4006362234042342e-02 3.1339721866302487e+01 1.0227278119962218e+01 0 1 0
1151 444 1 4.1499999999999998e-01 7.8920322304009494e-01 3.2277774115693980e+01 1.8957968522959366e+01 -4 0 0
1267 444 2 -8.2999999999999996e-01 7.7117438106287239e-01 3.2069601470014987e+01 1.6124146695536226e+01 -4 -4 0
1865 444 1 4.1499999999999998e-01 2.4274721542583150e-01 3.0166215611853712e+01 1.9730957046385413e+01 -6 2 0
1150 444 2 -8.2999999999999996e-01 4.4666040435914510e-02 3.1710938808850617e+01 1.9159448187183049e+01 -4 0 0
1269 444 1 4.1499999999999998e-01 1.5217767822019563e+00 3.2339665294851116e+01 1.6653196371634621e+01 -4 -4 0
1268 444 1 4.1499999999999998e-01 3.1348958064519650e-02 3.2551795220489559e+01 1.6493442754250836e+01 -4 -4 0
3050 444 4 0.0000000000000000e+00 3.4729999999999999e+00 6.6205000000000003e-01 1.8169999999999999e+00 0 0 0
3074 444 4 0.0000000000000000e+00 3.4738799999999999e+00 2.4762200000000001e+00 3.5753400000000002e+00 0 0 0
3075 444 4 0.0000000000000000e+00 3.4729999999999999e+00 2.4790000000000001e+00 0.0000000000000000e+00 0 0 0
88 444 2 -8.2999999999999996e-01 3.4359746560702940e+00 5.5531197978308011e-01 6.2031358058067312e+00 1 4 0
90 444 1 4.1499999999999998e-01 2.7485020490800345e+00 1.2111096642311803e+00 6.0867626134480286e+00 1 4 0
1952 444 1 4.1499999999999998e-01 3.6794635971399376e+00 3.9836657852093498e+00 6.2370343190104514e+00 -4 -4 0
784 444 2 -8.2999999999999996e-01 3.2468963316753889e+00 3.3566949809852438e+00 1.5844125489715976e+01 3 1 0
732 444 1 4.1499999999999998e-01 3.2000965087444366e+00 3.6212780281306594e+00 1.1684247244270429e+01 -2 0 0
730 444 2 -8.2999999999999996e-01 4.0718143139014966e+00 3.8786587012256422e+00 1.1384088512375934e+01 -2 0 0
786 444 1 4.1499999999999998e-01 3.7314094703227987e+00 2.5443999793598930e+00 1.5696966407354719e+01 3 1 0
2397 444 1 4.1499999999999998e-01 2.1203801238323607e+00 3.4519563872395995e+00 1.4574909071948557e+01 3 -1 0
2775 444 1 4.1499999999999998e-01 2.1255612716980115e+00 2.6676051440767843e+00 8.9409778417720442e+00 -1 -2 0
2560 444 2 -8.2999999999999996e-01 2.1067339455664054e+00 5.0169590720972124e-01 1.8162098269560410e+01 4 -3 0
2265 444 1 4.1499999999999998e-01 3.9372495013948918e+00 2.6278995386071062e+00 1.9954805383964747e+01 5 5 0
785 444 1 4.1499999999999998e-01 3.9163282555558538e+00 3.9934538661522327e+00 1.6094387249812552e+01 3 1 0
2562 444 1 4.1499999999999998e-01 2.4311486724878053e+00 1.3662451453911406e+00 1.8414174421619997e+01 4 -3 0
3064 444 4 0.0000000000000000e+00 3.4729999999999999e+00 6.1128000000000000e+00 0.0000000000000000e+00 0 0 0
3065 444 4 0.0000000000000000e+00 3.4735499999999999e+00 6.1125299999999996e+00 3.5709300000000002e+00 0 0 0
3068 444 4 0.0000000000000000e+00 3.4729999999999999e+00 4.2959500000000004e+00 1.8169999999999999e+00 0 0 0
3088 444 4 0.0000000000000000e+00 3.4729999999999999e+00 7.9297500000000003e+00 1.8169999999999999e+00 0 0 0
1847 444 1 4.1499999999999998e-01 3.7300400005692409e+00 7.5198014790567633e+00 6.3989920400954343e+00 1 2 0
980 444 1 4.1499999999999998e-01 2.3215524092369941e+00 5.4319864757615690e+00 7.4769668190898582e+00 3 4 0
1848 444 1 4.1499999999999998e-01 3.9873821522739838e+00 6.7457434263063680e+00 7.6743369606281604e+00 1 2 0
1531 444 2 -8.2999999999999996e-01 3.2391409052634348e+00 5.8794317558514910e+00 9.0578429559087947e+00 -5 -2 0
1504 444 2 -8.2999999999999996e-01 2.3435602394745145e+00 7.3252073288449688e+00 1.1252954875341764e+01 2 -1 0
1506 444 1 4.1499999999999998e-01 2.8470420632998645e+00 7.9449204786834580e+00 1.1780869238503827e+01 2 -1 0
1533 444 1 4.1499999999999998e-01 3.0355665006344754e+00 6.4868407034260906e+00 9.7690700201094565e+00 -5 -2 0
1532 444 1 4.1499999999999998e-01 3.6889405821363153e+00 5.1508937557563748e+00 9.4857968621608837e+00 -5 -2 0
650 444 1 4.1499999999999998e-01 2.6828083131458795e+00 5.7545775716790013e+00 1.9526699012028896e+01 2 2 0
111 444 1 4.1499999999999998e-01 2.0830706011213715e+00 4.2325613794085211e+00 1.8171263022506267e+01 0 1 0
649 444 2 -8.2999999999999996e-01 3.2816452033824541e+00 5.0550880559378575e+00 1.9265277167801585e+01 2 2 0
3084 444 4 0.0000000000000000e+00 3.4729999999999999e+00 9.7467000000000006e+00 0.0000000000000000e+00 0 0 0
3085 444 4 0.0000000000000000e+00 3.4708899999999998e+00 9.7495600000000007e+00 3.5749200000000001e+00 0 0 0
3104 444 4 0.0000000000000000e+00 3.4729999999999999e+00 1.1563549999999999e+01 1.8169999999999999e+00 0 0 0
149 444 1 4.1499999999999998e-01 3.1389855815924177e+00 9.8005395218949989e+00 6.8410314123156883e+00 0 -1 0
148 444 2 -8.2999999999999996e-01 3.6852637166648594e+00 1.0559311533296553e+01 7.0461600922503811e+00 0 -1 0
1438 444 2 -8.2999999999999996e-01 3.2155238150150116e+00 1.1868150993513298e+01 1.2615952918270604e+01 -2 0 0
1439 444 1 4.1499999999999998e-01 2.5312881510124541e+00 1.1748326306436066e+01 1.3274508735589464e+01 -2 0 0
1440 444 1 4.1499999999999998e-01 3.9935555988682809e+00 1.2108251890731172e+01 1.3119192431181968e+01 -2 0 0
1070 444 1 4.1499999999999998e-01 2.3753869943831796e+00 1.1895036643484190e+01 9.8449437769182726e+00 3 7 0
547 444 2 -8.2999999999999996e-01 3.9225138718611046e+00 9.4508875474653813e+00 1.1934226681644862e+01 -1 5 0
548 444 1 4.1499999999999998e-01 3.5315289152043472e+00 1.0302129737668928e+01 1.2131075562503923e+01 -1 5 0
549 444 1 4.1499999999999998e-01 3.9741473500856364e+00 9.4256963057935899e+00 1.0978752157546287e+01 -1 5 0
344 444 1 4.1499999999999998e-01 3.5753225255785099e+00 1.1174073730158185e+01 1.9353791112230194e+01 0 1 0
343 444 2 -8.2999999999999996e-01 2.8002128990805844e+00 1.1098537878730719e+01 1.8797255732054964e+01 0 1 0
444 444 1 4.1499999999999998e-01 3.0650309884483140e+00 9.8325571312825115e+00 1.7408922683238639e+01 1 1 0
345 444 1 4.1499999999999998e-01 2.5834127601826737e+00 1.2001194524361496e+01 1.8563928979471626e+01 0 1 0
443 444 1 4.1499999999999998e-01 3.0270140110462278e+00 8.9147677122622397e+00 1.6205547126438965e+01 1 1 0
442 444 2 -8.2999999999999996e-01 3.4537148907376465e+00 9.0329840379990678e+00 1.7054183313468126e+01 1 1 0
3122 444 4 0.0000000000000000e+00 3.4729999999999999e+00 1.5197450000000000e+01 1.8169999999999999e+00 0 0 0
3128 444 4 0.0000000000000000e+00 3.4738799999999999e+00 1.3377720000000000e+01 3.5753400000000002e+00 0 0 0
3129 444 4 0.0000000000000000e+00 3.4729999999999999e+00 1.3380500000000000e+01 0.0000000000000000e+00 0 0 0
1200 444 1 4.1499999999999998e-01 3.1081822483072599e+00 1.3766690276579201e+01 6.5964146676219162e+00 -1 2 0
1198 444 2 -8.2999999999999996e-01 2.3949242291175250e+00 1.4357910518116039e+01 6.8371500781450480e+00 -1 2 0
926 444 1 4.1499999999999998e-01 2.9940728844470414e+00 1.6110383666390291e+01 6.4929270329517852e+00 1 0 0
1205 444 1 4.1499999999999998e-01 3.9551733097507085e+00 1.3834335487574686e+01 1.0168785720296638e+01 2 -2 0
193 444 2 -8.2999999999999996e-01 3.4496177772604000e+00 1.4462764296265972e+01 1.5830195680421969e+01 -4 0 0
2549 444 1 4.1499999999999998e-01 3.3131320191052942e+00 1.4954340730802837e+01 1.2380520170301860e+01 0 -3 0
1206 444 1 4.1499999999999998e-01 3.9912393660880410e+00 1.2719828757927687e+01 1.1192733898018409e+01 2 -2 0
194 444 1 4.1499999999999998e-01 3.7699787848010162e+00 1.3866125997784813e+01 1.5153716656226944e+01 -4 0 0
195 444 1 4.1499999999999998e-01 3.9564719430347055e+00 1.5264660741487772e+01 1.5702548500253537e+01 -4 0 0
431 444 1 4.1499999999999998e-01 4.0810984302889057e+00 1.4804586179956328e+01 1.7800700602350247e+01 -1 -2 0
432 444 1 4.1499999999999998e-01 3.2704412992185019e+00 1.4375197787974464e+01 1.9005007846825869e+01 -1 -2 0
126 444 1 4.1499999999999998e-01 2.1153150919762109e+00 1.3681130419748582e+01 1.7035294381060421e+01 -1 1 0
3118 444 4 0.0000000000000000e+00 3.4729999999999999e+00 1.7014299999999999e+01 0.0000000000000000e+00 0 0 0
3119 444 4 0.0000000000000000e+00 3.4735499999999999e+00 1.7014030000000002e+01 3.5709300000000002e+00 0 0 0
3142 444 4 0.0000000000000000e+00 3.4729999999999999e+00 1.8831250000000001e+01 1.8169999999999999e+00 0 0 0
10 444 2 -8.2999999999999996e-01 2.2855265561145313e+00 1.9775585118953149e+01 7.9963155627204561e+00 1 -2 0
12 444 1 4.1499999999999998e-01 3.1256260843977235e+00 1.9590848895859970e+01 7.5763903242718857e+00 1 -2 0
925 444 2 -8.2999999999999996e-01 3.6360268620811609e+00 1.6793144422974610e+01 6.2980815419827731e+00 1 0 0
2853 444 1 4.1499999999999998e-01 3.9114848184260409e+00 1.7828229603049127e+01 1.5126391784299267e+01 -2 0 0
11 444 1 4.1499999999999998e-01 2.2561274049513513e+00 1.9181194837081701e+01 8.7460273774380433e+00 1 -2 0
1806 444 1 4.1499999999999998e-01 3.3790456450378068e+00 1.8233113211150346e+01 1.0724186325005569e+01 2 -1 0
2851 444 2 -8.2999999999999996e-01 3.7402461146028121e+00 1.8581918926867250e+01 1.4561712655374262e+01 -2 0 0
2528 444 1 4.1499999999999998e-01 3.9396265738393006e+00 1.8047998576477077e+01 1.3029086605488041e+01 2 0 0
1804 444 2 -8.2999999999999996e-01 2.6703154554654769e+00 1.8347313711071958e+01 1.0091026249377151e+01 2 -1 0
2852 444 1 4.1499999999999998e-01 2.7864527403459145e+00 1.8614791611451452e+01 1.4488019371101757e+01 -2 0 0
2430 444 1 4.1499999999999998e-01 3.0536880250816991e+00 2.0328739500143566e+01 1.0381449066272889e+01 5 -2 0
745 444 2 -8.2999999999999996e-01 2.5561101066429428e+00 1.7453329501923299e+01 1.8261566840152447e+01 4 -2 0
747 444 1 4.1499999999999998e-01 2.0647381495407737e+00 1.6792171651490406e+01 1.8749067335675942e+01 4 -2 0
3138 444 4 0.0000000000000000e+00 3.4729999999999999e+00 2.0648199999999999e+01 0.0000000000000000e+00 0 0 0
3139 444 4 0.0000000000000000e+00 3.4708899999999998e+00 2.0651060000000001e+01 3.5749200000000001e+00 0 0 0
3158 444 4 0.0000000000000000e+00 3.4729999999999999e+00 2.2465050000000002e+01 1.8169999999999999e+00 0 0 0
3182 444 4 0.0000000000000000e+00 3.4738799999999999e+00 2.4279219999999999e+01 3.5753400000000002e+00 0 0 0
3183 444 4 0.0000000000000000e+00 3.4729999999999999e+00 2.4282000000000000e+01 0.0000000000000000e+00 0 0 0
267 444 1 4.1499999999999998e-01 3.1256668157397605e+00 2.2286309627440492e+01 6.4847452121553824e+00 3 2 0
266 444 1 4.1499999999999998e-01 2.1260358592767283e+00 2.1554141468156722e+01 7.3545516729405200e+00 3 2 0
265 444 2 -8.2999999999999996e-01 2.2642367204611733e+00 2.2380326812877168e+01 6.8913550769643779e+00 3 2 0
1926 444 1 4.1499999999999998e-01 3.5059447817321336e+00 2.2475070377964361e+01 1.1850788488614974e+01 2 -1 0
2948 444 1 4.1499999999999998e-01 3.4834801868160139e+00 2.2192161812019620e+01 1.5353431130003937e+01 1 2 0
1924 444 2 -8.2999999999999996e-01 3.1253009198963695e+00 2.3314019678423566e+01 1.2110608208861715e+01 2 -1 0
2947 444 2 -8.2999999999999996e-01 2.6899116537759546e+00 2.2216327689512660e+01 1.5888124855011929e+01 1 2 0
1925 444 1 4.1499999999999998e-01 2.2691444458734451e+00 2.3086996642074162e+01 1.2473497395283220e+01 2 -1 0
2428 444 2 -8.2999999999999996e-01 3.7197370431565706e+00 2.0957343174171115e+01 1.0659780282984933e+01 5 -2 0
191 444 1 4.1499999999999998e-01 2.1317709234947335e+00 2.4434768144823320e+01 1.0866548722812801e+01 2 -1 0
2429 444 1 4.1499999999999998e-01 3.7418992219947218e+00 2.1609414478830406e+01 9.9593915330520257e+00 5 -2 0
1724 444 1 4.1499999999999998e-01 2.0974873558411242e+00 2.3303161648099668e+01 1.7186879510726381e+01 2 4 0
1723 444 2 -8.2999999999999996e-01 2.2244305518280765e+00 2.3723356729459457e+01 1.8037498927739811e+01 2 4 0
2949 444 1 4.1499999999999998e-01 2.4965354352981319e+00 2.1297131766656573e+01 1.6072289334463139e+01 1 2 0
3172 444 4 0.0000000000000000e+00 3.4729999999999999e+00 2.7915800000000001e+01 0.0000000000000000e+00 0 0 0
3173 444 4 0.0000000000000000e+00 3.4735499999999999e+00 2.7915530000000000e+01 3.5709300000000002e+00 0 0 0
3176 444 4 0.0000000000000000e+00 3.4729999999999999e+00 2.6098949999999999e+01 1.8169999999999999e+00 0 0 0
2321 444 1 4.1499999999999998e-01 2.4381294536711291e+00 2.7528251426100411e+01 6.6674311419052747e+00 -2 -5 0
2320 444 2 -8.2999999999999996e-01 2.4678853772110840e+00 2.8386996281937844e+01 7.0892176512872709e+00 -2 -5 0
1539 444 1 4.1499999999999998e-01 2.7918141956250477e+00 2.5037352394565168e+01 7.0863526856671752e+00 1 -2 0
2457 444 1 4.1499999999999998e-01 3.5322552689523778e+00 2.8324806493283617e+01 1.0373820452276066e+01 5 1 0
433 444 2 -8.2999999999999996e-01 4.0219493008413991e+00 2.7429286184282649e+01 8.9615168751084049e+00 0 2 0
1678 444 2 -8.2999999999999996e-01 2.7302804436967025e+00 2.6489551548326386e+01 1.4377756227667915e+01 0 2 0
1679 444 1 4.1499999999999998e-01 3.4084955568159123e+00 2.6575406371571837e+01 1.5047745094277106e+01 0 2 0
434 444 1 4.1499999999999998e-01 3.5733080945320408e+00 2.7804098220176456e+01 8.2035787542946892e+00 0 2 0
1680 444 1 4.1499999999999998e-01 3.1246639177591806e+00 2.5931929687905040e+01 1.3707121147562765e+01 0 2 0
2811 444 1 4.1499999999999998e-01 2.8956720062353107e+00 2.5233838598730937e+01 1.7895743239330987e+01 -1 2 0
2809 444 2 -8.2999999999999996e-01 3.0390516297517505e+00 2.6179606265155130e+01 1.7930353038771980e+01 -1 2 0
2810 444 1 4.1499999999999998e-01 2.1589889184567723e+00 2.6556047590833924e+01 1.7926673199385831e+01 -1 2 0
3192 444 4 0.0000000000000000e+00 3.4729999999999999e+00 3.1549700000000001e+01 0.0000000000000000e+00 0 0 0
3193 444 4 0.0000000000000000e+00 3.4708899999999998e+00 3.1552560000000000e+01 3.5749200000000001e+00 0 0 0
3196 444 4 0.0000000000000000e+00 3.4729999999999999e+00 2.9732749999999999e+01 1.8169999999999999e+00 0 0 0
89 444 1 4.1499999999999998e-01 2.9637345698423272e+00 3.2443980601498787e+01 6.3693902256822925e+00 1 3 0
533 444 1 4.1499999999999998e-01 2.3628926587687689e+00 3.0040887854617818e+01 6.8068697819644752e+00 2 1 0
532 444 2 -8.2999999999999996e-01 2.3174818917190558e+00 3.0996167696064347e+01 6.8469975466016280e+00 2 1 0
1529 444 1 4.1499999999999998e-01 4.0046507525074349e+00 2.8933726437273044e+01 6.8725893330078449e+00 3 1 0
2456 444 1 4.1499999999999998e-01 3.5347734193193920e+00 2.9731433427181418e+01 1.0933543700630954e+01 5 1 0
580 444 2 -8.2999999999999996e-01 3.3416907350413307e+00 3.1713254977890422e+01 9.1945848538331081e+00 1 1 0
161 444 1 4.1499999999999998e-01 2.0963913142692396e+00 3.1844986217639942e+01 1.5258938817591595e+01 2 -4 0
582 444 1 4.1499999999999998e-01 2.7724538799685412e+00 3.1505472672064112e+01 8.4536198045314581e+00 1 1 0