LAMMPS data file via write_data, version 11 Aug 2017, timestep = 1000000

3558 atoms
13 atom types
2024 bonds
5 bond types
1018 angles
5 angle types
12 dihedrals
4 dihedral types
9 impropers
1 improper types

0.0000000000000000e+00 3.2704500000000003e+01 xlo xhi
0.0000000000000000e+00 3.2704500000000003e+01 ylo yhi
0.0000000000000000e+00 8.0000000000000000e+01 zlo zhi

Masses

1 1.0079
2 15.9994
3 39.0983
4 63.546
5 12.011
6 15.9994
7 12.011
8 1.0079
9 12.011
10 15.9994
11 15.9994
12 15.9994
13 1.0079

Bond Coeffs # harmonic

1 450 0.9572
2 570 1.229
3 450 1.364
4 570 1.229
5 553 0.945

Angle Coeffs # harmonic

1 100 123.32
2 85 124
3 55 104.52
4 35 113
5 100 123.32

Dihedral Coeffs # charmm

1 0.922 1 180 0
2 3.741 2 0 0
3 0.922 1 0 0
4 3.741 2 180 0

Improper Coeffs # umbrella

1 21 0

Atoms # full

3037 444 4 0.0000000000000000e+00 1.6691100000000001e+00 6.6463000000000005e-01 3.5976300000000001e+00 0 0 0
3039 444 4 0.0000000000000000e+00 1.6560500000000000e+00 2.4790000000000001e+00 1.8169999999999999e+00 0 0 0
3048 444 4 0.0000000000000000e+00 1.6560500000000000e+00 6.6205000000000003e-01 0.0000000000000000e+00 0 0 0
1190 444 1 4.1499999999999998e-01 8.6030479461924469e-01 2.9813860970974360e+00 7.4936074590240640e+00 -3 -1 0
423 444 1 4.1499999999999998e-01 2.0001507232751994e+00 4.2411969807697342e-01 6.9754520927380996e+00 6 -2 0
1191 444 1 4.1499999999999998e-01 1.0877109171775176e-01 2.5353294559381570e+00 8.7297815055332340e+00 -3 -1 0
504 444 1 4.1499999999999998e-01 4.4340060921860563e-01 1.5542044855833137e-01 1.0884924836376710e+01 -1 -2 0
2239 444 2 -8.2999999999999996e-01 6.4452242400934634e-01 3.3751449261232782e+00 1.0501858356806054e+01 0 1 0
503 444 1 4.1499999999999998e-01 1.7656958133941567e+00 2.8665670619020928e-01 1.0159523115677928e+01 -1 -2 0
502 444 2 -8.2999999999999996e-01 8.6049311008290064e-01 4.1482122187313673e-04 1.0037434998800098e+01 -1 -2 0
1154 444 1 4.1499999999999998e-01 4.7806932483245762e-01 2.4436422397068802e+00 1.6552493213965061e+01 0 3 0
719 444 1 4.1499999999999998e-01 2.5333046517401037e-02 2.6348259155460457e-01 1.7532877674060170e+01 -1 -2 0
3054 444 4 0.0000000000000000e+00 1.6560500000000000e+00 4.2959500000000004e+00 0.0000000000000000e+00 0 0 0
3055 444 4 0.0000000000000000e+00 1.6695199999999999e+00 4.2794800000000004e+00 3.5817800000000002e+00 0 0 0
3057 444 4 0.0000000000000000e+00 1.6560500000000000e+00 6.1128000000000000e+00 1.8169999999999999e+00 0 0 0
3074 444 4 0.0000000000000000e+00 1.6560500000000000e+00 7.9297500000000003e+00 0.0000000000000000e+00 0 0 0
3075 444 4 0.0000000000000000e+00 1.6804100000000000e+00 7.9550000000000001e+00 3.5855399999999999e+00 0 0 0
606 444 1 4.1499999999999998e-01 1.8242867868375443e+00 5.0442339200292245e+00 7.9455663994428356e+00 -1 2 0
1203 444 1 4.1499999999999998e-01 2.8944117544170544e-01 6.4420578573081100e+00 1.2524006836575074e+01 0 -1 0
1639 444 2 -8.2999999999999996e-01 8.9198390778785042e-01 6.3344620026263128e+00 1.0770824443610195e+01 -1 -3 0
1641 444 1 4.1499999999999998e-01 1.6972302747872254e+00 6.2630340075812718e+00 1.1283375286569445e+01 -1 -3 0
1640 444 1 4.1499999999999998e-01 1.1784262823006029e+00 6.6621284134129866e+00 9.9182885250121355e+00 -1 -3 0
2241 444 1 4.1499999999999998e-01 8.4121251628580052e-01 4.2914631113393931e+00 1.0307163232959692e+01 0 1 0
693 444 1 4.1499999999999998e-01 1.0979490607246079e+00 6.6057888456133274e+00 1.4555085634513471e+01 -3 2 0
691 444 2 -8.2999999999999996e-01 1.7279438882528104e+00 6.7973087458028951e+00 1.5249822967162858e+01 -3 2 0
692 444 1 4.1499999999999998e-01 1.4704011049722285e+00 7.6594492005370780e+00 1.5576347220537636e+01 -3 2 0
196 444 2 -8.2999999999999996e-01 1.1258300903152663e+00 5.8641450950295768e+00 1.8883269875546642e+01 -3 2 0
198 444 1 4.1499999999999998e-01 1.6046695400232127e+00 6.2992163088592656e+00 1.9588719216106707e+01 -3 2 0
197 444 1 4.1499999999999998e-01 1.4557103026397498e+00 6.2716324906203749e+00 1.8082417088756902e+01 -3 2 0
3077 444 4 0.0000000000000000e+00 1.6560500000000000e+00 9.7467000000000006e+00 1.8169999999999999e+00 0 0 0
3095 444 4 0.0000000000000000e+00 1.6691100000000001e+00 1.1566129999999999e+01 3.5976300000000001e+00 0 0 0
3106 444 4 0.0000000000000000e+00 1.6560500000000000e+00 1.1563549999999999e+01 0.0000000000000000e+00 0 0 0
1741 444 2 -8.2999999999999996e-01 1.2035584551706424e+00 1.1458556232410613e+01 6.2244920068281173e+00 -2 0 0
1742 444 1 4.1499999999999998e-01 1.3933375586322141e+00 1.0589463024604965e+01 6.5778937420078192e+00 -2 0 0
1743 444 1 4.1499999999999998e-01 2.6092453353477207e-01 1.1449491001923368e+01 6.0583864468717268e+00 -2 0 0
2872 444 2 -8.2999999999999996e-01 1.7007787029912993e+00 8.9083429792368278e+00 7.0315998908464987e+00 -3 0 0
2874 444 1 4.1499999999999998e-01 1.0301507540968078e+00 8.3688372361092735e+00 6.6127636907265623e+00 -3 0 0
233 444 1 4.1499999999999998e-01 1.4203705314799211e+00 1.0265151004870614e+01 1.3032127434370667e+01 2 0 0
1262 444 1 4.1499999999999998e-01 1.5089787139683737e+00 9.9242134001170275e+00 1.0098148289818260e+01 4 -1 0
1139 444 1 4.1499999999999998e-01 1.6988418271173553e-01 1.1576617097071340e+01 9.5616025284183408e+00 8 1 0
232 444 2 -8.2999999999999996e-01 2.0302209430085516e+00 1.0769176888255455e+01 1.3570897551411255e+01 2 0 0
1263 444 1 4.1499999999999998e-01 1.2874067806069229e+00 9.5686182536269548e+00 8.6433790772059691e+00 4 -1 0
1261 444 2 -8.2999999999999996e-01 8.6240166464670998e-01 9.9822375814997990e+00 9.3947256617853068e+00 4 -1 0
234 444 1 4.1499999999999998e-01 1.7784229196591121e+00 1.1681645273476432e+01 1.3428659973528255e+01 2 0 0
940 444 2 -8.2999999999999996e-01 1.4163306315021249e+00 1.1595425719597143e+01 1.7447962279894231e+01 -4 -3 0
942 444 1 4.1499999999999998e-01 8.4014857867050641e-01 1.1226772967356540e+01 1.6778379388647920e+01 -4 -3 0
2222 444 1 4.1499999999999998e-01 1.8319082411309642e+00 1.0449061057690455e+01 1.8686101412071679e+01 -2 3 0
3097 444 4 0.0000000000000000e+00 1.6560500000000000e+00 1.3380500000000000e+01 1.8169999999999999e+00 0 0 0
3112 444 4 0.0000000000000000e+00 1.6560500000000000e+00 1.5197450000000000e+01 0.0000000000000000e+00 0 0 0
3113 444 4 0.0000000000000000e+00 1.6695199999999999e+00 1.5180980000000000e+01 3.5817899999999998e+00 0 0 0
1738 444 2 -8.2999999999999996e-01 1.6605574654843771e+00 1.4109162720626161e+01 6.2002959319750000e+00 0 4 0
1739 444 1 4.1499999999999998e-01 7.8337768757506709e-01 1.4470060086917339e+01 6.3289061894277268e+00 0 4 0
1740 444 1 4.1499999999999998e-01 1.5115996173117354e+00 1.3190790569765285e+01 5.9752714452007103e+00 0 4 0
1563 444 1 4.1499999999999998e-01 1.5960672361073818e+00 1.5802112456385958e+01 1.5770779182482324e+01 1 7 0
1798 444 2 -8.2999999999999996e-01 1.2891326047624225e+00 1.4680144056808118e+01 1.0119817417587045e+01 2 1 0
1799 444 1 4.1499999999999998e-01 1.3910508858719619e+00 1.4763879271117021e+01 1.1067885948793956e+01 2 1 0
78 444 1 4.1499999999999998e-01 8.7228968079575281e-02 1.4982061234505990e+01 1.3232196758216910e+01 -1 4 0
76 444 2 -8.2999999999999996e-01 9.6309548722875127e-01 1.4970537890059907e+01 1.2846245857025799e+01 -1 4 0
1800 444 1 4.1499999999999998e-01 9.1228974328565315e-01 1.3809149079743714e+01 9.9949579347916426e+00 2 1 0
77 444 1 4.1499999999999998e-01 1.4880217154661619e+00 1.4454035242147002e+01 1.3457727946182063e+01 -1 4 0
3035 444 12 -7.8000000000000003e-01 3.0926938546048571e-01 1.5754064130701174e+01 1.9228491410658954e+01 1 1 0
3032 444 9 1.0800000000000001e+00 1.5863232461235630e-01 1.4415404964457101e+01 1.9354371864547144e+01 1 1 0
3033 444 10 -8.5999999999999999e-01 3.3444740271478440e-01 1.3736231746027061e+01 1.8355129458630461e+01 1 1 0
3036 444 13 3.5999999999999999e-01 1.2209290475951051e+00 1.6070475270184026e+01 1.9197218701322871e+01 1 1 0
1561 444 2 -8.2999999999999996e-01 1.9912698994920184e+00 1.5290278474470531e+01 1.6476521973597617e+01 1 7 0
1562 444 1 4.1499999999999998e-01 1.2597521685003255e+00 1.4807958641749570e+01 1.6861854754034344e+01 1 7 0
941 444 1 4.1499999999999998e-01 9.4883954774347623e-01 1.2366669511751150e+01 1.7768691143992577e+01 -4 -3 0
3115 444 4 0.0000000000000000e+00 1.6560500000000000e+00 1.7014299999999999e+01 1.8169999999999999e+00 0 0 0
3132 444 4 0.0000000000000000e+00 1.6560500000000000e+00 1.8831250000000001e+01 0.0000000000000000e+00 0 0 0
3133 444 4 0.0000000000000000e+00 1.6804100000000000e+00 1.8856500000000000e+01 3.5855399999999999e+00 0 0 0
2046 444 1 4.1499999999999998e-01 1.2625388167608116e+00 1.9390682932503861e+01 7.7507834768778050e+00 1 -3 0
2044 444 2 -8.2999999999999996e-01 1.9271683260437777e+00 1.9945542030090991e+01 7.3425790580812036e+00 1 -3 0
823 444 2 -8.2999999999999996e-01 4.7757920480488841e-01 1.9661738242030435e+01 1.2517467588911076e+01 -2 4 0
2964 444 1 4.1499999999999998e-01 1.1033856370917028e+00 2.0329812925959043e+01 1.5450402392841964e+01 1 -1 0
712 444 2 -8.2999999999999996e-01 1.5334672801645091e+00 1.7442039544659938e+01 1.1959275143720713e+01 1 -3 0
825 444 1 4.1499999999999998e-01 5.9059607338020781e-01 1.9706034371563309e+01 1.3466939616346556e+01 -2 4 0
802 444 2 -8.2999999999999996e-01 1.0582991218515625e+00 1.8069758238422072e+01 9.2729202633851493e+00 2 0 0
2794 444 2 -8.2999999999999996e-01 8.8055792947092237e-01 1.7078076330912623e+01 1.4896369874694461e+01 -2 3 0
804 444 1 4.1499999999999998e-01 3.9405018930231217e-01 1.7383666496161212e+01 9.3383708983081277e+00 2 0 0
824 444 1 4.1499999999999998e-01 9.3092994597486955e-01 1.8859304495417323e+01 1.2259000464985723e+01 -2 4 0
104 444 1 4.1499999999999998e-01 9.2767112922842332e-01 1.9944772717261930e+01 9.5996233658870818e+00 2 1 0
2795 444 1 4.1499999999999998e-01 6.8891331946631595e-01 1.7970697361020331e+01 1.5184002275391407e+01 -2 3 0
2962 444 2 -8.2999999999999996e-01 5.4804689767456238e-01 1.9558900468534201e+01 1.5334099178812473e+01 1 -1 0
713 444 1 4.1499999999999998e-01 1.4328134182916752e+00 1.6675404331931780e+01 1.2523519969907630e+01 1 -3 0
803 444 1 4.1499999999999998e-01 1.8536686170684176e+00 1.7667861996011020e+01 9.6223470098746482e+00 2 0 0
2796 444 1 4.1499999999999998e-01 1.4065160303497043e-01 1.6842183771911952e+01 1.4336793621014992e+01 -2 3 0
105 444 1 4.1499999999999998e-01 9.6832991171009108e-01 2.0321877993096454e+01 1.1065240552256000e+01 2 1 0
3135 444 4 0.0000000000000000e+00 1.6560500000000000e+00 2.0648199999999999e+01 1.8169999999999999e+00 0 0 0
3153 444 4 0.0000000000000000e+00 1.6691100000000001e+00 2.2467630000000000e+01 3.5976300000000001e+00 0 0 0
3155 444 4 0.0000000000000000e+00 1.6560500000000000e+00 2.4282000000000000e+01 1.8169999999999999e+00 0 0 0
3164 444 4 0.0000000000000000e+00 1.6560500000000000e+00 2.2465050000000002e+01 0.0000000000000000e+00 0 0 0
1264 444 2 -8.2999999999999996e-01 6.4195685284278248e-01 2.2313758527898923e+01 6.8189175714679253e+00 4 0 0
1265 444 1 4.1499999999999998e-01 5.4232112994714943e-01 2.2655581375793794e+01 7.7074342876788196e+00 4 0 0
1266 444 1 4.1499999999999998e-01 5.5535504010763526e-01 2.3082337646578519e+01 6.2549865109250549e+00 4 0 0
2045 444 1 4.1499999999999998e-01 1.4454791587784186e+00 2.0717020143073352e+01 7.0442017775520060e+00 1 -3 0
3006 444 1 4.1499999999999998e-01 7.2381062270846686e-01 2.4338245940644381e+01 1.5433281400321517e+01 -4 5 0
1686 444 1 4.1499999999999998e-01 8.6748007999290133e-01 2.2385254513925148e+01 9.6626924595140800e+00 -1 -4 0
1684 444 2 -8.2999999999999996e-01 9.4321521900974392e-01 2.3256424491126037e+01 9.2733867477718945e+00 -1 -4 0
638 444 1 4.1499999999999998e-01 1.8016121049961471e+00 2.2124176496431637e+01 1.5278297279989275e+01 0 1 0
3004 444 2 -8.2999999999999996e-01 7.2865237003363703e-01 2.3410487515393022e+01 1.5197754397339486e+01 -4 5 0
1685 444 1 4.1499999999999998e-01 2.1575225458014161e-01 2.3751630629157258e+01 9.6499506732725866e+00 -1 -4 0
103 444 2 -8.2999999999999996e-01 1.1579763039582562e+00 2.0661600768193384e+01 1.0190680913423959e+01 2 1 0
1471 444 2 -8.2999999999999996e-01 1.4769954480332576e-01 2.3054537931662022e+01 1.9958387532193751e+01 0 2 0
1473 444 1 4.1499999999999998e-01 1.7459112664597254e-01 2.2628556037942197e+01 1.9101621358216736e+01 0 2 0
2144 444 1 4.1499999999999998e-01 1.9851205382641917e+00 2.1120910433923783e+01 1.8178376888864850e+01 -1 0 0
1472 444 1 4.1499999999999998e-01 8.7277675886628125e-01 2.3679124453120853e+01 1.9938722493130040e+01 0 2 0
848 444 2 -8.2999999999999996e-01 2.5321846392899439e-01 2.2339051059764067e+01 1.7569689271882371e+01 -2 0 0
852 444 1 4.1499999999999998e-01 4.7372797170032804e-01 2.2724855573473146e+01 1.6721889989071663e+01 -2 0 0
3170 444 4 0.0000000000000000e+00 1.6560500000000000e+00 2.6098949999999999e+01 0.0000000000000000e+00 0 0 0
3171 444 4 0.0000000000000000e+00 1.6695199999999999e+00 2.6082480000000000e+01 3.5817899999999998e+00 0 0 0
3173 444 4 0.0000000000000000e+00 1.6560500000000000e+00 2.7915800000000001e+01 1.8169999999999999e+00 0 0 0
2219 444 1 4.1499999999999998e-01 1.2008408995042466e+00 2.5849756200023119e+01 6.3435361684138432e+00 0 -2 0
2218 444 2 -8.2999999999999996e-01 4.8177395088556152e-01 2.5219838247418068e+01 6.2947642024908514e+00 0 -2 0
377 444 1 4.1499999999999998e-01 1.9941614027603209e+00 2.7960893366818837e+01 6.2652544405213648e+00 0 -3 0
2728 444 2 -8.2999999999999996e-01 1.6505155020155950e+00 2.6286402837474878e+01 1.1861918801109935e+01 -2 4 0
2025 444 1 4.1499999999999998e-01 3.3453710975288470e-01 2.5386720628275736e+01 1.2656220762835385e+01 -2 -1 0
2986 444 2 -8.2999999999999996e-01 1.8376718388380164e+00 2.8058481891917769e+01 9.3791174093700995e+00 2 7 0
850 444 1 4.1499999999999998e-01 1.8425582872595143e+00 2.8599883849655708e+01 1.3329192551368264e+01 2 -2 0
851 444 1 4.1499999999999998e-01 5.5313558189282852e-01 2.7819984393638528e+01 1.3184135026440918e+01 2 -2 0
2500 444 2 -8.2999999999999996e-01 1.4361926857541971e+00 2.5600767272084397e+01 1.9351955653672196e+01 2 -3 0
2323 444 2 -8.2999999999999996e-01 8.7073713626505456e-01 2.5550077949927832e+01 1.6613122548670670e+01 2 2 0
2502 444 1 4.1499999999999998e-01 1.4928410881974530e+00 2.6359743706644906e+01 1.9932453427628904e+01 2 -3 0
2324 444 1 4.1499999999999998e-01 1.0780802743268403e+00 2.5877186169320989e+01 1.7488474892458697e+01 2 2 0
2325 444 1 4.1499999999999998e-01 1.5896625568994124e-01 2.6113150826024299e+01 1.6308879081353886e+01 2 2 0
3190 444 4 0.0000000000000000e+00 1.6560500000000000e+00 2.9732749999999999e+01 0.0000000000000000e+00 0 0 0
3191 444 4 0.0000000000000000e+00 1.6804100000000000e+00 2.9757999999999999e+01 3.5855399999999999e+00 0 0 0
3193 444 4 0.0000000000000000e+00 1.6560500000000000e+00 3.1549700000000001e+01 1.8169999999999999e+00 0 0 0
1584 444 1 4.1499999999999998e-01 1.5154632423761203e+00 3.1034144247374293e+01 6.2057884890472090e+00 -2 -2 0
1583 444 1 4.1499999999999998e-01 1.1378280436676407e+00 2.9686644461875456e+01 6.7833101987079312e+00 -2 -2 0
1582 444 2 -8.2999999999999996e-01 1.8355361949126034e+00 3.0137862059396202e+01 6.3080855477524080e+00 -2 -2 0
1717 444 2 -8.2999999999999996e-01 5.3282202066775253e-01 3.2610986098580483e+01 6.2832114913650203e+00 -2 -5 0
1718 444 1 4.1499999999999998e-01 1.7441489713775896e-01 3.2149220313873016e+01 7.0412014600726076e+00 -2 -5 0
438 444 1 4.1499999999999998e-01 9.5701735801000154e-01 3.1422255920042435e+01 1.3075075621682753e+01 1 -2 0
847 444 2 -8.2999999999999996e-01 9.4448265061444803e-01 2.8675318564975839e+01 1.3006697754840697e+01 2 -2 0
437 444 1 4.1499999999999998e-01 1.4007389374857049e-01 3.0219905004412052e+01 1.3497984698914545e+01 1 -2 0
436 444 2 -8.2999999999999996e-01 9.3402943522406884e-02 3.1171213124379797e+01 1.3402764225891424e+01 1 -2 0
1085 444 1 4.1499999999999998e-01 3.9269069485260405e-01 2.8660355228560324e+01 9.4719929497602653e+00 -2 -2 0
2625 444 1 4.1499999999999998e-01 2.6605993053098947e-01 3.1629806197521752e+01 8.8541239532993199e+00 -1 1 0
2063 444 1 4.1499999999999998e-01 2.0102870080948527e+00 3.2048261025910186e+01 1.5968099863925561e+01 3 3 0
2062 444 2 -8.2999999999999996e-01 1.6929496930363486e+00 3.2523419865527451e+01 1.6736054121146324e+01 3 3 0
3038 444 4 0.0000000000000000e+00 3.4729999999999999e+00 6.6205000000000003e-01 1.8169999999999999e+00 0 0 0
3062 444 4 0.0000000000000000e+00 3.4743800000000000e+00 2.4652799999999999e+00 3.5961099999999999e+00 0 0 0
3063 444 4 0.0000000000000000e+00 3.4729999999999999e+00 2.4790000000000001e+00 0.0000000000000000e+00 0 0 0
421 444 2 -8.2999999999999996e-01 2.8718487703562916e+00 7.8995849289210884e-01 7.1255763818132687e+00 6 -2 0
2284 444 2 -8.2999999999999996e-01 2.5558312370859615e+00 3.4357964213874865e+00 6.6033592079529004e+00 -2 4 0
2286 444 1 4.1499999999999998e-01 2.6916502355356711e+00 2.4897199870554716e+00 6.6555670291434721e+00 -2 4 0
2285 444 1 4.1499999999999998e-01 3.3707536427811391e+00 3.7751726187708687e+00 6.2332810112799217e+00 -2 4 0
1645 444 2 -8.2999999999999996e-01 3.8590530733051107e+00 2.9401147623141952e+00 1.1771056747190212e+01 4 2 0
422 444 1 4.1499999999999998e-01 2.9245121989308558e+00 9.0294201458122647e-01 8.0746261862902049e+00 6 -2 0
622 444 2 -8.2999999999999996e-01 3.4215441898453438e+00 1.5056554870579237e+00 9.4639571192029450e+00 0 -3 0
624 444 1 4.1499999999999998e-01 3.5334264388298666e+00 2.4113299240782164e+00 9.7528657611360607e+00 0 -3 0
1647 444 1 4.1499999999999998e-01 2.9293721748140835e+00 2.9890966284540461e+00 1.1548510698077743e+01 4 2 0
2160 444 1 4.1499999999999998e-01 3.4927752258316374e+00 2.1378892661171163e+00 1.5622702296090830e+01 1 -1 0
1646 444 1 4.1499999999999998e-01 3.8968821086441001e+00 2.3355045056313477e+00 1.2512169252773838e+01 4 2 0
2158 444 2 -8.2999999999999996e-01 3.1832151121647221e+00 2.7685759910836989e+00 1.6272809703628699e+01 1 -1 0
2159 444 1 4.1499999999999998e-01 3.7974972000827498e+00 2.6828012191869086e+00 1.7001872685008550e+01 1 -1 0
3052 444 4 0.0000000000000000e+00 3.4729999999999999e+00 6.1128000000000000e+00 0.0000000000000000e+00 0 0 0
3053 444 4 0.0000000000000000e+00 3.4734500000000001e+00 6.1134500000000003e+00 3.5849799999999998e+00 0 0 0
3056 444 4 0.0000000000000000e+00 3.4729999999999999e+00 4.2959500000000004e+00 1.8169999999999999e+00 0 0 0
3076 444 4 0.0000000000000000e+00 3.4729999999999999e+00 7.9297500000000003e+00 1.8169999999999999e+00 0 0 0
605 444 1 4.1499999999999998e-01 2.8482403471509010e+00 5.7845313644663836e+00 8.7794574684431677e+00 -1 2 0
1405 444 2 -8.2999999999999996e-01 2.9123138613256909e+00 6.0501295404109072e+00 1.2573221998435230e+01 5 1 0
1406 444 1 4.1499999999999998e-01 3.5259817113407865e+00 5.4230999478521600e+00 1.2190497601601507e+01 5 1 0
604 444 2 -8.2999999999999996e-01 2.0695407259898939e+00 5.9214168971106265e+00 8.2399008135532164e+00 -1 2 0
2639 444 1 4.1499999999999998e-01 2.8509242147003402e+00 5.4832671993747901e+00 1.5395148428160859e+01 0 3 0
2638 444 2 -8.2999999999999996e-01 3.6023667326167743e+00 5.0551441140373008e+00 1.4984933064482043e+01 0 3 0
1407 444 1 4.1499999999999998e-01 3.0196310277139644e+00 5.9445337428861453e+00 1.3518507919392588e+01 5 1 0
2640 444 1 4.1499999999999998e-01 3.5400055830022286e+00 4.1416719137949602e+00 1.5264059571340702e+01 0 3 0
3072 444 4 0.0000000000000000e+00 3.4729999999999999e+00 9.7467000000000006e+00 0.0000000000000000e+00 0 0 0
3073 444 4 0.0000000000000000e+00 3.4771000000000001e+00 9.7598400000000005e+00 3.5976100000000000e+00 0 0 0
3096 444 4 0.0000000000000000e+00 3.4729999999999999e+00 1.1563549999999999e+01 1.8169999999999999e+00 0 0 0
2873 444 1 4.1499999999999998e-01 2.5006231626871451e+00 8.3858743328441161e+00 6.9723696195056997e+00 -3 0 0
2438 444 1 4.1499999999999998e-01 3.8250166456112202e+00 1.1916434558769994e+01 7.9941639642308786e+00 0 3 0
2439 444 1 4.1499999999999998e-01 3.1069361508437212e+00 1.1717146942386952e+01 6.6763854257662034e+00 0 3 0
2437 444 2 -8.2999999999999996e-01 3.8096359083092142e+00 1.1357126298131609e+01 7.2175238209556403e+00 0 3 0
2980 444 2 -8.2999999999999996e-01 2.3621744215838016e+00 9.4137100968071969e+00 1.5882822618967776e+01 3 -3 0
788 444 1 4.1499999999999998e-01 2.9846725424727780e+00 1.0274231498380477e+01 1.2061296474431446e+01 4 -3 0
2982 444 1 4.1499999999999998e-01 2.1993266988334792e+00 9.8538116609705035e+00 1.5048542616819381e+01 3 -3 0
787 444 2 -8.2999999999999996e-01 3.0334274821191900e+00 9.8468864661731637e+00 1.1206175575409649e+01 4 -3 0
789 444 1 4.1499999999999998e-01 3.9083951150636747e+00 1.0059279044022214e+01 1.0881284827852159e+01 4 -3 0
2540 444 1 4.1499999999999998e-01 3.5978910603670085e+00 8.3558926485573952e+00 1.6027787661221140e+01 -8 5 0
2223 444 1 4.1499999999999998e-01 2.9584351762217489e+00 1.0288946153553605e+01 1.9684698205416947e+01 -2 3 0
2981 444 1 4.1499999999999998e-01 2.3981104329675644e+00 1.0122544176022494e+01 1.6525080221384513e+01 3 -3 0
2221 444 2 -8.2999999999999996e-01 2.1125050449266216e+00 9.9190232856336777e+00 1.9432129093247742e+01 -2 3 0
3114 444 4 0.0000000000000000e+00 3.4729999999999999e+00 1.5197450000000000e+01 1.8169999999999999e+00 0 0 0
3120 444 4 0.0000000000000000e+00 3.4743800000000000e+00 1.3366780000000000e+01 3.5961099999999999e+00 0 0 0
3121 444 4 0.0000000000000000e+00 3.4729999999999999e+00 1.3380500000000000e+01 0.0000000000000000e+00 0 0 0
647 444 1 4.1499999999999998e-01 3.3398593249732369e+00 1.4826540745370087e+01 6.0912436660552247e+00 1 1 0
2681 444 1 4.1499999999999998e-01 3.6211664448721779e+00 1.4519582048021862e+01 7.6924864075055597e+00 -3 -4 0
648 444 1 4.1499999999999998e-01 4.0536067699076161e+00 1.6104674995428137e+01 6.4770328641341459e+00 1 1 0
2680 444 2 -8.2999999999999996e-01 3.5565119051608272e+00 1.3994136188287410e+01 8.4899572673245309e+00 -3 -4 0
1690 444 2 -8.2999999999999996e-01 2.7922325150815439e+00 1.3576775242533492e+01 1.4442085692567819e+01 0 -1 0
1692 444 1 4.1499999999999998e-01 3.5189878385639197e+00 1.3011129194055520e+01 1.4703052373149623e+01 0 -1 0
1691 444 1 4.1499999999999998e-01 2.5265183394207842e+00 1.4014580961145464e+01 1.5250760467619486e+01 0 -1 0
2682 444 1 4.1499999999999998e-01 2.6365130109860289e+00 1.4058971273291270e+01 8.7461424819887359e+00 -3 -4 0
885 444 1 4.1499999999999998e-01 2.7369921498622016e+00 1.6221610471584761e+01 1.7652154603381437e+01 0 3 0
917 444 1 4.1499999999999998e-01 3.7854734446978062e+00 1.4152053444645079e+01 1.6896250496602764e+01 -1 0 0
3110 444 4 0.0000000000000000e+00 3.4729999999999999e+00 1.7014299999999999e+01 0.0000000000000000e+00 0 0 0
3111 444 4 0.0000000000000000e+00 3.4734500000000001e+00 1.7014949999999999e+01 3.5849799999999998e+00 0 0 0
3134 444 4 0.0000000000000000e+00 3.4729999999999999e+00 1.8831250000000001e+01 1.8169999999999999e+00 0 0 0
1310 444 1 4.1499999999999998e-01 2.6865665478350098e+00 1.8381533648006680e+01 6.6335205939205366e+00 5 1 0
1311 444 1 4.1499999999999998e-01 3.3627014114619191e+00 1.7433591679838720e+01 7.6010655910503004e+00 5 1 0
1309 444 2 -8.2999999999999996e-01 3.4015404461533771e+00 1.7748370367890512e+01 6.6979382836589654e+00 5 1 0
109 444 2 -8.2999999999999996e-01 3.7803193298988349e+00 1.7667239322691458e+01 9.4128123592615793e+00 1 5 0
1895 444 1 4.1499999999999998e-01 3.0951968183205478e+00 1.8549597668346621e+01 1.5281978109311563e+01 2 -4 0
714 444 1 4.1499999999999998e-01 2.4575074109175543e+00 1.7436577290300391e+01 1.1709570599432558e+01 1 -3 0
1629 444 1 4.1499999999999998e-01 3.2455023249152690e+00 2.0405912749591259e+01 8.4062831190590863e+00 4 3 0
110 444 1 4.1499999999999998e-01 3.6858210954795241e+00 1.8542193189050263e+01 9.7893205624802526e+00 1 5 0
1894 444 2 -8.2999999999999996e-01 3.6568343565284804e+00 1.8603245121648833e+01 1.6055229369237800e+01 2 -4 0
1896 444 1 4.1499999999999998e-01 3.3326344846914582e+00 1.9365507964071622e+01 1.6534898346156442e+01 2 -4 0
884 444 1 4.1499999999999998e-01 2.8964771331431209e+00 1.7656023007641167e+01 1.8109233938353725e+01 0 3 0
883 444 2 -8.2999999999999996e-01 2.8798135139819387e+00 1.6755615301295766e+01 1.8433610570102076e+01 0 3 0
2145 444 1 4.1499999999999998e-01 2.2586912116339231e+00 1.9947127197160565e+01 1.9094503288829035e+01 -1 0 0
3130 444 4 0.0000000000000000e+00 3.4729999999999999e+00 2.0648199999999999e+01 0.0000000000000000e+00 0 0 0
3131 444 4 0.0000000000000000e+00 3.4771000000000001e+00 2.0661339999999999e+01 3.5976100000000000e+00 0 0 0
3154 444 4 0.0000000000000000e+00 3.4729999999999999e+00 2.2465050000000002e+01 1.8169999999999999e+00 0 0 0
3178 444 4 0.0000000000000000e+00 3.4743800000000000e+00 2.4268280000000001e+01 3.5961099999999999e+00 0 0 0
3179 444 4 0.0000000000000000e+00 3.4729999999999999e+00 2.4282000000000000e+01 0.0000000000000000e+00 0 0 0
1017 444 1 4.1499999999999998e-01 3.4701492159478713e+00 2.1087733418382882e+01 6.4427142001401316e+00 2 4 0
1016 444 1 4.1499999999999998e-01 3.9250037016872281e+00 2.2531363292056458e+01 6.4733074424033630e+00 2 4 0
2868 444 1 4.1499999999999998e-01 2.5294932120960243e+00 2.3687963631418882e+01 7.3631495379470335e+00 -1 5 0
2866 444 2 -8.2999999999999996e-01 3.1831210729730999e+00 2.4024376796243939e+01 6.7501005023293352e+00 -1 5 0
2997 444 1 4.1499999999999998e-01 3.2711607849413982e+00 2.3722414517195379e+01 1.1189830883895974e+01 1 0 0
639 444 1 4.1499999999999998e-01 3.2664460083840781e+00 2.1747307988512844e+01 1.5214052094575782e+01 0 1 0
1627 444 2 -8.2999999999999996e-01 3.7209986168913720e+00 2.0576900863050007e+01 9.2192396982949294e+00 4 3 0
2996 444 1 4.1499999999999998e-01 2.3971056916204319e+00 2.3816256431741298e+01 9.9573063653739364e+00 1 0 0
2995 444 2 -8.2999999999999996e-01 3.1501477818904742e+00 2.4224871153865134e+01 1.0384147895304608e+01 1 0 0
948 444 1 4.1499999999999998e-01 2.7322008079442721e+00 2.3475938507014309e+01 1.3226737827601543e+01 4 2 0
946 444 2 -8.2999999999999996e-01 3.4614355630801339e+00 2.2989362106770489e+01 1.2842430377555662e+01 4 2 0
1628 444 1 4.1499999999999998e-01 3.0637861109127322e+00 2.0947526586892081e+01 9.8082566182028579e+00 4 3 0
637 444 2 -8.2999999999999996e-01 2.3906656057264875e+00 2.1369913215559787e+01 1.5296598158540107e+01 0 1 0
2143 444 2 -8.2999999999999996e-01 2.6721777675075065e+00 2.0506729412140171e+01 1.8437155403237121e+01 -1 0 0
854 444 1 4.1499999999999998e-01 4.0306572923695017e+00 2.2298668039322283e+01 1.8262830962092753e+01 1 0 0
3168 444 4 0.0000000000000000e+00 3.4729999999999999e+00 2.7915800000000001e+01 0.0000000000000000e+00 0 0 0
3169 444 4 0.0000000000000000e+00 3.4734500000000001e+00 2.7916450000000001e+01 3.5849799999999998e+00 0 0 0
3172 444 4 0.0000000000000000e+00 3.4729999999999999e+00 2.6098949999999999e+01 1.8169999999999999e+00 0 0 0
378 444 1 4.1499999999999998e-01 3.2756171880781837e+00 2.7390252445730404e+01 6.8345839832735962e+00 0 -3 0
376 444 2 -8.2999999999999996e-01 2.3450679379237442e+00 2.7196316814844678e+01 6.7218940651651486e+00 0 -3 0
2867 444 1 4.1499999999999998e-01 2.8681227302760779e+00 2.4898239977580022e+01 6.5190780707993952e+00 -1 5 0
543 444 1 4.1499999999999998e-01 3.4318331351956086e+00 2.7100709912848206e+01 1.4334027043880122e+01 2 0 0
2730 444 1 4.1499999999999998e-01 2.2597743742366192e+00 2.6839656406117644e+01 1.2350740034021742e+01 -2 4 0
541 444 2 -8.2999999999999996e-01 3.3003400049444553e+00 2.7603773811601542e+01 1.3530367812739216e+01 2 0 0
2357 444 1 4.1499999999999998e-01 2.4715423602716289e+00 2.5909867285357972e+01 1.5992583924618788e+01 0 1 0
2356 444 2 -8.2999999999999996e-01 3.2431651923932634e+00 2.6455747227881041e+01 1.5841437295478549e+01 0 1 0
2729 444 1 4.1499999999999998e-01 2.2100991688441387e+00 2.5657443119738296e+01 1.1406388509058319e+01 -2 4 0
2987 444 1 4.1499999999999998e-01 2.0525235624601526e+00 2.7684634607628741e+01 8.5245359135072896e+00 2 7 0
2988 444 1 4.1499999999999998e-01 2.1387039241105072e+00 2.7404344493725183e+01 1.0009765260763094e+01 2 7 0
183 444 1 4.1499999999999998e-01 4.0517637428500954e+00 2.5797807381909994e+01 9.7255953374933011e+00 2 -2 0
2501 444 1 4.1499999999999998e-01 2.3438307423507743e+00 2.5413577247474656e+01 1.9112404047686489e+01 2 -3 0
2422 444 2 -8.2999999999999996e-01 2.9650809546492227e+00 2.8570957216027523e+01 1.7603924413524567e+01 -2 0 0
2358 444 1 4.1499999999999998e-01 3.2348095445387002e+00 2.7087479236334620e+01 1.6560517886856122e+01 0 1 0
3188 444 4 0.0000000000000000e+00 3.4729999999999999e+00 3.1549700000000001e+01 0.0000000000000000e+00 0 0 0
3189 444 4 0.0000000000000000e+00 3.4771000000000001e+00 3.1562840000000001e+01 3.5976100000000000e+00 0 0 0
3192 444 4 0.0000000000000000e+00 3.4729999999999999e+00 2.9732749999999999e+01 1.8169999999999999e+00 0 0 0
2336 444 1 4.1499999999999998e-01 3.6537603702622223e+00 3.0826095569535958e+01 6.5857792994424864e+00 4 0 0
2461 444 2 -8.2999999999999996e-01 3.4525441396826118e+00 3.0223064610457989e+01 9.6036836517790451e+00 -1 3 0
2463 444 1 4.1499999999999998e-01 2.8033692943164450e+00 2.9567054823537912e+01 9.8575655344939204e+00 -1 3 0
1072 444 2 -8.2999999999999996e-01 2.9027814359100210e+00 3.1920649663237779e+01 1.3667644415867915e+01 -3 -3 0
1074 444 1 4.1499999999999998e-01 3.5770461289444548e+00 3.2595071438331210e+01 1.3749828675998002e+01 -3 -3 0
2462 444 1 4.1499999999999998e-01 3.5715430689569230e+00 3.0091450704635797e+01 8.6630723803347500e+00 -1 3 0
1073 444 1 4.1499999999999998e-01 3.3894854952194744e+00 3.1096912680007595e+01 1.3639209342493809e+01 -3 -3 0
2423 444 1 4.1499999999999998e-01 3.1889895014853828e+00 2.8829488380877514e+01 1.8497937011290531e+01 -2 0 0
2424 444 1 4.1499999999999998e-01 3.2561089554563991e+00 2.9304345059782811e+01 1.7062004746847332e+01 -2 0 0
2064 444 1 4.1499999999999998e-01 2.4363640218362637e+00 3.2528886862494709e+01 1.7338994983630919e+01 3 3 0
3042 444 4 0.0000000000000000e+00 5.2898399999999999e+00 6.6205000000000003e-01 0.0000000000000000e+00 0 0 0
3043 444 4 0.0000000000000000e+00 5.2768199999999998e+00 6.6220999999999997e-01 3.5959200000000000e+00 0 0 0