LAMMPS data file via write_data, version 11 Aug 2017, timestep = 1000000

3558 atoms
11 atom types
2024 bonds
5 bond types
1018 angles
5 angle types
12 dihedrals
4 dihedral types
9 impropers
1 improper types

0.0000000000000000e+00 3.2704500000000003e+01 xlo xhi
0.0000000000000000e+00 3.2704500000000003e+01 ylo yhi
0.0000000000000000e+00 8.0000000000000000e+01 zlo zhi

Masses

1 1.0079
2 15.9994
3 39.0983
4 63.546
5 12.011
6 1.0079
7 12.011
8 15.9994
9 15.9994
10 15.9994
11 1.0079

Bond Coeffs # harmonic

1 450 0.9572
2 570 1.229
3 450 1.364
4 570 1.229
5 553 0.945

Angle Coeffs # harmonic

1 100 123.32
2 85 124
3 55 104.52
4 35 113
5 100 123.32

Dihedral Coeffs # charmm

1 0.922 1 180 0
2 3.741 2 0 0
3 0.922 1 0 0
4 3.741 2 180 0

Improper Coeffs # umbrella

1 21 0

Atoms # full

3049 444 4 0.0000000000000000e+00 1.6619999999999999e+00 6.6452000000000000e-01 3.5823499999999999e+00 0 0 0
3051 444 4 0.0000000000000000e+00 1.6560500000000000e+00 2.4790000000000001e+00 1.8169999999999999e+00 0 0 0
3060 444 4 0.0000000000000000e+00 1.6560500000000000e+00 6.6205000000000003e-01 0.0000000000000000e+00 0 0 0
2566 444 2 -8.2999999999999996e-01 6.1693546298231339e-01 3.5909037356763407e+00 6.8459599520701113e+00 -1 5 0
2568 444 1 4.1499999999999998e-01 8.9723950455617707e-02 2.7938063508879973e+00 6.8999609649848601e+00 -1 5 0
2567 444 1 4.1499999999999998e-01 5.4242221496950427e-01 3.9871912115704018e+00 7.7140825405057809e+00 -1 5 0
2985 444 1 4.1499999999999998e-01 5.7986879090316379e-01 1.3999152702469781e+00 9.5545207546359787e+00 -1 2 0
725 444 1 4.1499999999999998e-01 1.2294581948179115e+00 1.7051502009370469e+00 1.7189413582826575e+01 -1 -3 0
724 444 2 -8.2999999999999996e-01 1.1382455621687733e+00 2.0105892222554465e+00 1.8091976423595288e+01 -1 -3 0
1386 444 1 4.1499999999999998e-01 7.2064805903305551e-01 3.1965656189673513e+00 1.9244496549583850e+01 0 2 0
726 444 1 4.1499999999999998e-01 1.1356786792202329e+00 1.2102739204948545e+00 1.8617068338279381e+01 -1 -3 0
3066 444 4 0.0000000000000000e+00 1.6560500000000000e+00 4.2959500000000004e+00 0.0000000000000000e+00 0 0 0
3067 444 4 0.0000000000000000e+00 1.6662500000000000e+00 4.2895599999999998e+00 3.5629800000000000e+00 0 0 0
3069 444 4 0.0000000000000000e+00 1.6560500000000000e+00 6.1128000000000000e+00 1.8169999999999999e+00 0 0 0
3086 444 4 0.0000000000000000e+00 1.6560500000000000e+00 7.9297500000000003e+00 0.0000000000000000e+00 0 0 0
3087 444 4 0.0000000000000000e+00 1.6710799999999999e+00 7.9411600000000000e+00 3.5645099999999998e+00 0 0 0
1763 444 1 4.1499999999999998e-01 1.3778797235647959e+00 6.6364963184305932e+00 7.6998539575774227e+00 -2 2 0
1762 444 2 -8.2999999999999996e-01 1.9436119138874459e+00 6.9821217223068466e+00 7.0094027472865532e+00 -2 2 0
689 444 1 4.1499999999999998e-01 1.2021356180476057e+00 7.9575859630200076e+00 1.2472905320510419e+01 -1 -2 0
1296 444 1 4.1499999999999998e-01 2.9097514300414673e-01 4.9129241291738159e+00 9.6897197877289116e+00 -1 0 0
1294 444 2 -8.2999999999999996e-01 3.1744972454936093e-01 5.3572462875016269e+00 8.8423066849916214e+00 -1 0 0
2198 444 1 4.1499999999999998e-01 1.3584891060879849e+00 7.9477229445861379e+00 1.7363877101154785e+01 -1 -1 0
3089 444 4 0.0000000000000000e+00 1.6560500000000000e+00 9.7467000000000006e+00 1.8169999999999999e+00 0 0 0
3107 444 4 0.0000000000000000e+00 1.6619999999999999e+00 1.1566020000000000e+01 3.5823499999999999e+00 0 0 0
3118 444 4 0.0000000000000000e+00 1.6560500000000000e+00 1.1563549999999999e+01 0.0000000000000000e+00 0 0 0
2536 444 2 -8.2999999999999996e-01 1.0445597652529946e-01 8.9027635063592534e+00 7.0334768100813694e+00 0 -5 0
2538 444 1 4.1499999999999998e-01 3.5722718795048169e-01 9.8255519196391177e+00 7.0051842170205179e+00 0 -5 0
142 444 2 -8.2999999999999996e-01 1.9037037232397300e+00 1.1472218163343339e+01 6.3949642684418233e+00 0 0 0
2976 444 1 4.1499999999999998e-01 1.6509426070421857e-01 1.2069438043020376e+01 6.4196761251999224e+00 3 1 0
2537 444 1 4.1499999999999998e-01 8.9630027981200555e-01 8.4291155691028710e+00 6.7787736151080962e+00 0 -5 0
688 444 2 -8.2999999999999996e-01 4.3991218702659579e-01 8.5302046897011010e+00 1.2558671958223474e+01 -1 -2 0
690 444 1 4.1499999999999998e-01 6.8003199076384768e-01 9.3228706837854975e+00 1.2078822581489517e+01 -1 -2 0
2963 444 1 4.1499999999999998e-01 1.1876687936151618e+00 1.0687948736830830e+01 1.5816255561521702e+01 1 1 0
548 444 1 4.1499999999999998e-01 1.4697860569885257e+00 1.0491786838233399e+01 1.0621886532856266e+01 -3 3 0
547 444 2 -8.2999999999999996e-01 1.2664045228071523e+00 1.1066174016643529e+01 1.1360092427058945e+01 -3 3 0
647 444 1 4.1499999999999998e-01 1.4488078164848162e-01 9.0903255014189490e+00 1.4355836544418469e+01 5 -1 0
2199 444 1 4.1499999999999998e-01 2.6890534158363694e-01 8.6115148121184202e+00 1.6548963034522824e+01 -1 -1 0
2962 444 2 -8.2999999999999996e-01 1.8467673735762118e+00 1.1097628256977197e+01 1.6376598322000664e+01 1 1 0
2964 444 1 4.1499999999999998e-01 1.4923879256722550e+00 1.1017267350656297e+01 1.7262143156859427e+01 1 1 0
2150 444 1 4.1499999999999998e-01 6.1510082454773851e-02 9.6130859953949077e+00 1.8330476534772682e+01 -1 2 0
2197 444 2 -8.2999999999999996e-01 4.3045358375986409e-01 8.1809163938744511e+00 1.7388439536911285e+01 -1 -1 0
3109 444 4 0.0000000000000000e+00 1.6560500000000000e+00 1.3380500000000000e+01 1.8169999999999999e+00 0 0 0
3124 444 4 0.0000000000000000e+00 1.6560500000000000e+00 1.5197450000000000e+01 0.0000000000000000e+00 0 0 0
3125 444 4 0.0000000000000000e+00 1.6662500000000000e+00 1.5191060000000000e+01 3.5629800000000000e+00 0 0 0
1115 444 1 4.1499999999999998e-01 7.2887565674439381e-01 1.5345375745827388e+01 6.3222242254085925e+00 3 1 0
1116 444 1 4.1499999999999998e-01 1.8680025969572776e+00 1.6263067237604663e+01 6.7122598498251600e+00 3 1 0
1114 444 2 -8.2999999999999996e-01 1.6838923912461021e+00 1.5388009022387442e+01 6.3707784278810369e+00 3 1 0
1756 444 2 -8.2999999999999996e-01 1.0761396856898122e+00 1.3649304823286124e+01 9.3635635385784273e+00 0 0 0
1757 444 1 4.1499999999999998e-01 1.3227546156879948e+00 1.4250277945963942e+01 1.0066588805773362e+01 0 0 0
1298 444 1 4.1499999999999998e-01 7.0196343752403700e-01 1.3665937487233714e+01 1.2709801984205189e+01 0 0 0
1758 444 1 4.1499999999999998e-01 1.7694089469207614e+00 1.3746280553713438e+01 8.7107192059685605e+00 0 0 0
1299 444 1 4.1499999999999998e-01 4.8130637700606035e-02 1.2353811926647753e+01 1.2332013043240249e+01 0 0 0
1297 444 2 -8.2999999999999996e-01 3.7629985106518340e-02 1.3040385492722956e+01 1.2998900120662125e+01 0 0 0
907 444 2 -8.2999999999999996e-01 1.9722190205605508e+00 1.4469591704415226e+01 1.2104191438069460e+01 3 -4 0
2088 444 1 4.1499999999999998e-01 1.1790977058263590e+00 1.3286362626165666e+01 1.8425629501113143e+01 -2 0 0
1047 444 1 4.1499999999999998e-01 1.3656060283666618e+00 1.6054545115999787e+01 1.8671691505376316e+01 1 1 0
1615 444 2 -8.2999999999999996e-01 3.1650766955769710e-02 1.5512042648596504e+01 1.6283316236953439e+01 -1 2 0
1617 444 1 4.1499999999999998e-01 2.4265820360354706e-01 1.4703029026772326e+01 1.6749368612450468e+01 -1 2 0
2086 444 2 -8.2999999999999996e-01 3.8527929437169867e-01 1.3377158190376129e+01 1.7898523242604874e+01 -2 0 0
1893 444 1 4.1499999999999998e-01 1.7970844963444914e+00 1.6230338650033836e+01 1.6056098756604662e+01 7 -1 0
3127 444 4 0.0000000000000000e+00 1.6560500000000000e+00 1.7014299999999999e+01 1.8169999999999999e+00 0 0 0
3144 444 4 0.0000000000000000e+00 1.6560500000000000e+00 1.8831250000000001e+01 0.0000000000000000e+00 0 0 0
3145 444 4 0.0000000000000000e+00 1.6710799999999999e+00 1.8842659999999999e+01 3.5645099999999998e+00 0 0 0
980 444 1 4.1499999999999998e-01 1.2393067125351149e+00 1.8537714384932425e+01 7.1991452666887827e+00 4 -2 0
979 444 2 -8.2999999999999996e-01 2.0151828219966927e+00 1.8085582916407621e+01 6.8677463146840854e+00 4 -2 0
1510 444 2 -8.2999999999999996e-01 1.0741234931712902e+00 2.0063132552883030e+01 1.0429875523979732e+01 -2 0 0
1511 444 1 4.1499999999999998e-01 1.9199284394052445e+00 1.9648598331275302e+01 1.0259559972665995e+01 -2 0 0
1512 444 1 4.1499999999999998e-01 1.1143797523773193e+00 2.0321056776474556e+01 1.1350791679755380e+01 -2 0 0
2616 444 1 4.1499999999999998e-01 4.2435275381942505e-01 1.9678535198938629e+01 8.8618339417292873e+00 0 -1 0
1045 444 2 -8.2999999999999996e-01 1.8032670959918902e+00 1.6434272483892983e+01 1.9433591641156827e+01 1 1 0
1725 444 1 4.1499999999999998e-01 2.9778649345462471e-01 1.8510959256112351e+01 1.7308536951235610e+01 -1 -2 0
1723 444 2 -8.2999999999999996e-01 1.0048374909306284e+00 1.9125224557334491e+01 1.7111080785372060e+01 -1 -2 0
1724 444 1 4.1499999999999998e-01 1.7236787238078555e+00 1.8572954307409088e+01 1.6803677260240239e+01 -1 -2 0
2321 444 1 4.1499999999999998e-01 2.8703516162063775e-01 1.8745389443010929e+01 1.9828433370915075e+01 -1 -1 0
2858 444 1 4.1499999999999998e-01 1.3911453565305059e+00 2.0244516554064269e+01 1.6048112006908962e+01 0 3 0
3147 444 4 0.0000000000000000e+00 1.6560500000000000e+00 2.0648199999999999e+01 1.8169999999999999e+00 0 0 0
3165 444 4 0.0000000000000000e+00 1.6619999999999999e+00 2.2467520000000000e+01 3.5823499999999999e+00 0 0 0
3167 444 4 0.0000000000000000e+00 1.6560500000000000e+00 2.4282000000000000e+01 1.8169999999999999e+00 0 0 0
3176 444 4 0.0000000000000000e+00 1.6560500000000000e+00 2.2465050000000002e+01 0.0000000000000000e+00 0 0 0
2010 444 1 4.1499999999999998e-01 3.2924138104469591e-02 2.0442938660516816e+01 6.7433265827964082e+00 1 1 0
2008 444 2 -8.2999999999999996e-01 9.3574115747647207e-02 2.1208002627903845e+01 6.1712849473530929e+00 1 1 0
2009 444 1 4.1499999999999998e-01 9.7821475053936235e-01 2.1544665089984672e+01 6.3137686903053067e+00 1 1 0
1291 444 2 -8.2999999999999996e-01 6.2764111991045857e-01 2.3032497587571566e+01 1.1742138805060158e+01 -2 -1 0
1818 444 1 4.1499999999999998e-01 1.3101614991302439e+00 2.2430080924172948e+01 9.3562246512545695e+00 2 -1 0
2857 444 2 -8.2999999999999996e-01 1.6624688206727212e+00 2.0851458236852078e+01 1.5359463144416978e+01 0 3 0
177 444 1 4.1499999999999998e-01 5.2857789161885627e-01 2.0666126183809077e+01 1.4086213274160542e+01 -3 -2 0
1816 444 2 -8.2999999999999996e-01 1.5887113030431022e+00 2.2950799887852952e+01 8.6029026323770417e+00 2 -1 0
1293 444 1 4.1499999999999998e-01 5.1671537934503586e-01 2.2261692884430893e+01 1.2298724420631370e+01 -2 -1 0
1292 444 1 4.1499999999999998e-01 1.1663482771124092e+00 2.3628642281522211e+01 1.2262367646616754e+01 -2 -1 0
175 444 2 -8.2999999999999996e-01 6.8135886903270659e-02 2.0844120087326775e+01 1.3266125960524574e+01 -3 -2 0
2312 444 1 4.1499999999999998e-01 1.9421660927082485e-01 2.3728083749726931e+01 8.0611494863739424e+00 -4 0 0
1853 444 1 4.1499999999999998e-01 1.8930895356348985e+00 2.0839952503192805e+01 1.8405673731804992e+01 -1 1 0
3182 444 4 0.0000000000000000e+00 1.6560500000000000e+00 2.6098949999999999e+01 0.0000000000000000e+00 0 0 0
3183 444 4 0.0000000000000000e+00 1.6662500000000000e+00 2.6092559999999999e+01 3.5629800000000000e+00 0 0 0
3185 444 4 0.0000000000000000e+00 1.6560500000000000e+00 2.7915800000000001e+01 1.8169999999999999e+00 0 0 0
2288 444 1 4.1499999999999998e-01 1.6405386244370206e+00 2.7986392749368687e+01 7.7469012550136975e+00 2 2 0
2287 444 2 -8.2999999999999996e-01 1.7854650073464544e+00 2.8515438025072815e+01 6.9624652787075982e+00 2 2 0
6 444 1 4.1499999999999998e-01 7.7572876544839575e-01 2.5489644859412223e+01 1.3464600861856944e+01 5 2 0
1271 444 1 4.1499999999999998e-01 3.4144300999114441e-01 2.7522064808834909e+01 1.2419360043708062e+01 3 -2 0
2128 444 2 -8.2999999999999996e-01 3.5265392113396227e-01 2.6484588113962339e+01 8.9317225102310633e+00 5 3 0
1996 444 2 -8.2999999999999996e-01 7.7711206945153466e-01 2.8438309967957068e+01 1.4884560456939543e+01 -3 -4 0
2130 444 1 4.1499999999999998e-01 1.3436209252789613e-01 2.5997676988230840e+01 8.1370537406982315e+00 5 3 0
1270 444 2 -8.2999999999999996e-01 6.9784597554368788e-01 2.6655882506393954e+01 1.2222032747092362e+01 3 -2 0
5 444 1 4.1499999999999998e-01 5.8596619080994838e-01 2.4573782617850963e+01 1.4655013774573243e+01 5 2 0
4 444 2 -8.2999999999999996e-01 1.1793471631775840e+00 2.4754495422996001e+01 1.3925990942606907e+01 5 2 0
1272 444 1 4.1499999999999998e-01 1.5881171424700824e-01 2.6333431374398462e+01 1.1499744841948816e+01 3 -2 0
1998 444 1 4.1499999999999998e-01 2.3687960607725789e-01 2.8551832983531316e+01 1.4102580059300200e+01 -3 -4 0
3202 444 4 0.0000000000000000e+00 1.6560500000000000e+00 2.9732749999999999e+01 0.0000000000000000e+00 0 0 0
3203 444 4 0.0000000000000000e+00 1.6710799999999999e+00 2.9744160000000001e+01 3.5645099999999998e+00 0 0 0
3205 444 4 0.0000000000000000e+00 1.6560500000000000e+00 3.1549700000000001e+01 1.8169999999999999e+00 0 0 0
114 444 1 4.1499999999999998e-01 7.1806948956689631e-01 2.9934492316391271e+01 6.5343266776451570e+00 -2 2 0
75 444 1 4.1499999999999998e-01 1.5031972554470940e+00 3.2109320974090402e+01 6.9700604150259098e+00 -1 -5 0
112 444 2 -8.2999999999999996e-01 4.5930685813261768e-01 3.0776558707902893e+01 6.9087577246400826e+00 -2 2 0
1997 444 1 4.1499999999999998e-01 1.5844431988023091e+00 2.8914190938978571e+01 1.4689661337248010e+01 -3 -4 0
69 444 1 4.1499999999999998e-01 1.7949951821369179e+00 3.0148843221375287e+01 1.0348846321490617e+01 3 -1 0
358 444 2 -8.2999999999999996e-01 3.1398745540567979e-01 3.0618762605253391e+01 1.0048555370162706e+01 -1 -5 0
1881 444 1 4.1499999999999998e-01 1.5738273387743573e+00 3.1900536855060228e+01 1.6816513663484084e+01 4 -1 0
1503 444 1 4.1499999999999998e-01 1.9559289204200703e+00 2.9422562469974039e+01 1.9031547800271667e+01 5 0 0
3050 444 4 0.0000000000000000e+00 3.4729999999999999e+00 6.6205000000000003e-01 1.8169999999999999e+00 0 0 0
3074 444 4 0.0000000000000000e+00 3.4770500000000002e+00 2.4624700000000002e+00 3.5860200000000000e+00 0 0 0
3075 444 4 0.0000000000000000e+00 3.4729999999999999e+00 2.4790000000000001e+00 0.0000000000000000e+00 0 0 0
778 444 2 -8.2999999999999996e-01 2.9986947415880056e+00 2.5684863659309656e+00 6.1540460430721593e+00 -1 -3 0
779 444 1 4.1499999999999998e-01 2.9130090586560331e+00 1.6575670736342576e+00 6.4353216688273278e+00 -1 -3 0
780 444 1 4.1499999999999998e-01 2.1906655213505366e+00 2.9879468403358391e+00 6.4496363879258585e+00 -1 -3 0
655 444 2 -8.2999999999999996e-01 2.2949450074004241e+00 9.1735312626687215e-01 9.5564773376328809e+00 3 0 0
657 444 1 4.1499999999999998e-01 3.0714278138579574e+00 1.4756569895537723e+00 9.5164265865738962e+00 3 0 0
1694 444 1 4.1499999999999998e-01 3.1009414601010157e+00 7.7897553920531201e-02 1.3901700244054036e+01 1 -3 0
656 444 1 4.1499999999999998e-01 2.3432991162164427e+00 3.8184231095071253e-01 8.7645664614539545e+00 3 0 0
1693 444 2 -8.2999999999999996e-01 3.5257247093574571e+00 3.0537825467649815e-01 1.4728769607547349e+01 1 -3 0
953 444 1 4.1499999999999998e-01 3.6295719023217368e+00 2.3537154780219511e+00 1.5034936852207014e+01 0 5 0
952 444 2 -8.2999999999999996e-01 3.9402521701951652e+00 3.1366302066081331e+00 1.5489639470347702e+01 0 5 0
293 444 1 4.1499999999999998e-01 3.3717510457316791e+00 3.6844314707281378e+00 1.6939195278156280e+01 1 1 0
294 444 1 4.1499999999999998e-01 2.3134904538546714e+00 3.5949868296742173e+00 1.8018074091158120e+01 1 1 0
292 444 2 -8.2999999999999996e-01 3.1771765378198227e+00 3.9641516602725502e+00 1.7833694755939153e+01 1 1 0
1602 444 1 4.1499999999999998e-01 3.9866297127735404e+00 3.2218102373453100e-01 1.8478505043812149e+01 -5 -2 0
3064 444 4 0.0000000000000000e+00 3.4729999999999999e+00 6.1128000000000000e+00 0.0000000000000000e+00 0 0 0
3065 444 4 0.0000000000000000e+00 3.4744100000000002e+00 6.1123900000000004e+00 3.5719200000000000e+00 0 0 0
3068 444 4 0.0000000000000000e+00 3.4729999999999999e+00 4.2959500000000004e+00 1.8169999999999999e+00 0 0 0
3088 444 4 0.0000000000000000e+00 3.4729999999999999e+00 7.9297500000000003e+00 1.8169999999999999e+00 0 0 0
1764 444 1 4.1499999999999998e-01 2.6322114928358840e+00 6.3244602337464624e+00 6.9117035223678212e+00 -2 2 0
472 444 2 -8.2999999999999996e-01 3.9168995140928913e+00 5.0578060535040263e+00 6.9322805546965682e+00 -1 3 0
474 444 1 4.1499999999999998e-01 3.4818353817872700e+00 4.2716959583617902e+00 6.6021549096250221e+00 -1 3 0
33 444 1 4.1499999999999998e-01 2.8665104464538542e+00 8.0562764003103737e+00 1.1238570771287581e+01 0 -3 0
32 444 1 4.1499999999999998e-01 2.8912394662431908e+00 6.6335986120477699e+00 1.0721587503282061e+01 0 -3 0
2602 444 2 -8.2999999999999996e-01 3.6393667776960572e+00 5.3902523818694270e+00 9.6407062982635487e+00 2 1 0
31 444 2 -8.2999999999999996e-01 2.5417330119130677e+00 7.1761214164393072e+00 1.1428514756913248e+01 0 -3 0
2604 444 1 4.1499999999999998e-01 3.5203467131002570e+00 5.3648969634629777e+00 8.6912732065051390e+00 2 1 0
2330 444 1 4.1499999999999998e-01 2.3327887076669063e+00 4.4847053311565412e+00 1.3106141787499848e+01 0 1 0
2331 444 1 4.1499999999999998e-01 2.7682467320438531e+00 5.7891817563371166e+00 1.2473201509475846e+01 0 1 0
2603 444 1 4.1499999999999998e-01 3.9826251174695368e+00 4.5247428790554780e+00 9.8627403206531667e+00 2 1 0
2329 444 2 -8.2999999999999996e-01 3.0608215813121462e+00 4.8926997754919270e+00 1.2637376642733681e+01 0 1 0
45 444 1 4.1499999999999998e-01 3.9430346543091783e+00 6.7579778106592556e+00 1.7852984185141263e+01 -2 0 0
44 444 1 4.1499999999999998e-01 2.6458034010596494e+00 6.0538023578846314e+00 1.7516497569015545e+01 -2 0 0
43 444 2 -8.2999999999999996e-01 3.0465742472694828e+00 6.9219623986620542e+00 1.7560238630285522e+01 -2 0 0
935 444 1 4.1499999999999998e-01 3.6943067608588791e+00 4.3498838951402989e+00 1.9546502995686993e+01 4 0 0
3084 444 4 0.0000000000000000e+00 3.4729999999999999e+00 9.7467000000000006e+00 0.0000000000000000e+00 0 0 0
3085 444 4 0.0000000000000000e+00 3.4766800000000000e+00 9.7645400000000002e+00 3.5851299999999999e+00 0 0 0
3108 444 4 0.0000000000000000e+00 3.4729999999999999e+00 1.1563549999999999e+01 1.8169999999999999e+00 0 0 0
143 444 1 4.1499999999999998e-01 2.4350005216492159e+00 1.0681107590155580e+01 6.3049662070675154e+00 0 0 0
2082 444 1 4.1499999999999998e-01 3.2874403452922376e+00 8.4349087477852738e+00 6.6154615912518553e+00 -4 -1 0
2080 444 2 -8.2999999999999996e-01 3.6361787216851300e+00 9.3104121812106619e+00 6.7831148074877241e+00 -4 -1 0
144 444 1 4.1499999999999998e-01 2.5393758902203225e+00 1.2172973395790761e+01 6.5402052844835943e+00 0 0 0
1020 444 1 4.1499999999999998e-01 3.0449496132143175e+00 9.1295643562601221e+00 1.5221407939157038e+01 2 1 0
1013 444 1 4.1499999999999998e-01 3.8492693547585333e+00 1.0670855064794537e+01 1.0383395498766541e+01 -1 -1 0
1018 444 2 -8.2999999999999996e-01 3.9481518480560895e+00 8.8624561153767267e+00 1.5050788498959726e+01 2 1 0
1468 444 2 -8.2999999999999996e-01 2.6017025052235629e+00 1.0484119702907925e+01 9.0422964090238782e+00 0 -2 0
1469 444 1 4.1499999999999998e-01 3.0017327020303322e+00 9.8996421914450696e+00 8.3984068162289613e+00 0 -2 0
1470 444 1 4.1499999999999998e-01 2.4417704441439114e+00 1.1296609214821281e+01 8.5621772106566372e+00 0 -2 0
549 444 1 4.1499999999999998e-01 2.0458526053801811e+00 1.1612556666981343e+01 1.1460884492147995e+01 -3 3 0
1452 444 1 4.1499999999999998e-01 2.5314043630644534e+00 1.2255249969598134e+01 1.4817100280214122e+01 2 1 0
1211 444 1 4.1499999999999998e-01 2.6420675256246891e+00 1.1168213974045683e+01 1.9489941233756749e+01 -3 2 0
2344 444 2 -8.2999999999999996e-01 3.8719746534093766e+00 9.7239401591167827e+00 1.9637092674848500e+01 1 1 0
1210 444 2 -8.2999999999999996e-01 2.2629525159189257e+00 1.2013408799881507e+01 1.9731083097760710e+01 -3 2 0
3126 444 4 0.0000000000000000e+00 3.4729999999999999e+00 1.5197450000000000e+01 1.8169999999999999e+00 0 0 0
3132 444 4 0.0000000000000000e+00 3.4770500000000002e+00 1.3363970000000000e+01 3.5860200000000000e+00 0 0 0
3133 444 4 0.0000000000000000e+00 3.4729999999999999e+00 1.3380500000000000e+01 0.0000000000000000e+00 0 0 0
2546 444 1 4.1499999999999998e-01 2.7661175283312915e+00 1.4080779373671270e+01 6.7480738558066156e+00 -3 -2 0
2545 444 2 -8.2999999999999996e-01 3.3849474000604629e+00 1.3420964734853630e+01 7.0610056236800158e+00 -3 -2 0
909 444 1 4.1499999999999998e-01 2.3957640212914280e+00 1.5320045239514354e+01 1.1987698248684259e+01 3 -4 0
908 444 1 4.1499999999999998e-01 2.5088093378216723e+00 1.4021843158491000e+01 1.2758274373800118e+01 3 -4 0
1450 444 2 -8.2999999999999996e-01 3.2290967132393660e+00 1.2885537100538514e+01 1.4637668488820456e+01 2 1 0
1451 444 1 4.1499999999999998e-01 4.0346202462879122e+00 1.2370128080488715e+01 1.4679113716201689e+01 2 1 0
3122 444 4 0.0000000000000000e+00 3.4729999999999999e+00 1.7014299999999999e+01 0.0000000000000000e+00 0 0 0
3123 444 4 0.0000000000000000e+00 3.4744100000000002e+00 1.7013890000000000e+01 3.5719200000000000e+00 0 0 0
3146 444 4 0.0000000000000000e+00 3.4729999999999999e+00 1.8831250000000001e+01 1.8169999999999999e+00 0 0 0
981 444 1 4.1499999999999998e-01 2.6318613356979879e+00 1.8787698994674887e+01 6.6604482153277820e+00 4 -2 0
302 444 1 4.1499999999999998e-01 3.5220063914205237e+00 1.8167156099318056e+01 9.3419282813228985e+00 2 -3 0
2134 444 2 -8.2999999999999996e-01 3.9558134860408871e+00 2.0136004770552450e+01 1.4311604083995842e+01 -1 5 0
301 444 2 -8.2999999999999996e-01 3.3870598446314499e+00 1.9033728312722221e+01 9.7254309446031666e+00 2 -3 0
303 444 1 4.1499999999999998e-01 4.0668031995412175e+00 1.9108246822366674e+01 1.0395227924474687e+01 2 -3 0
2859 444 1 4.1499999999999998e-01 2.4303969148961437e+00 2.0438515074534912e+01 1.4964499515809958e+01 0 3 0
1891 444 2 -8.2999999999999996e-01 2.4060478762556934e+00 1.6964190135523648e+01 1.6138914442188188e+01 7 -1 0
2115 444 1 4.1499999999999998e-01 2.3734597202965513e+00 1.9240533989759530e+01 1.9836975400498837e+01 0 2 0
1892 444 1 4.1499999999999998e-01 3.2700476224565374e+00 1.6575748652860501e+01 1.6001620235113847e+01 7 -1 0
3142 444 4 0.0000000000000000e+00 3.4729999999999999e+00 2.0648199999999999e+01 0.0000000000000000e+00 0 0 0
3143 444 4 0.0000000000000000e+00 3.4766800000000000e+00 2.0666039999999999e+01 3.5851299999999999e+00 0 0 0
3166 444 4 0.0000000000000000e+00 3.4729999999999999e+00 2.2465050000000002e+01 1.8169999999999999e+00 0 0 0
3190 444 4 0.0000000000000000e+00 3.4770500000000002e+00 2.4265470000000001e+01 3.5860200000000000e+00 0 0 0
3191 444 4 0.0000000000000000e+00 3.4729999999999999e+00 2.4282000000000000e+01 0.0000000000000000e+00 0 0 0
1373 444 1 4.1499999999999998e-01 3.2234813714092421e+00 2.0730773874220304e+01 7.9291915751242987e+00 3 -2 0
1374 444 1 4.1499999999999998e-01 4.0370716239265567e+00 2.0719584088982668e+01 6.6525392921507542e+00 3 -2 0
1372 444 2 -8.2999999999999996e-01 3.1850930002675963e+00 2.0468565409201336e+01 7.0094061950269184e+00 3 -2 0
1817 444 1 4.1499999999999998e-01 2.0721687631348824e+00 2.3684017019321079e+01 8.9835521567758736e+00 2 -1 0
610 444 2 -8.2999999999999996e-01 3.0665336237620515e+00 2.3400668365967594e+01 1.4945868188337968e+01 -2 2 0
611 444 1 4.1499999999999998e-01 2.6098122870186162e+00 2.2586575220720970e+01 1.5157740574833626e+01 -2 2 0
612 444 1 4.1499999999999998e-01 2.4020454885557814e+00 2.3946069609842446e+01 1.4524887280853484e+01 -2 2 0
2144 444 1 4.1499999999999998e-01 3.0120297075271325e+00 2.4237617435587847e+01 1.6529120322896969e+01 1 -2 0
1854 444 1 4.1499999999999998e-01 3.3217378215391373e+00 2.1216932169742964e+01 1.8735440758025085e+01 -1 1 0
1852 444 2 -8.2999999999999996e-01 2.5286393048916773e+00 2.0845107380835930e+01 1.9121412683932718e+01 -1 1 0
3180 444 4 0.0000000000000000e+00 3.4729999999999999e+00 2.7915800000000001e+01 0.0000000000000000e+00 0 0 0
3181 444 4 0.0000000000000000e+00 3.4744100000000002e+00 2.7915389999999999e+01 3.5719200000000000e+00 0 0 0
3184 444 4 0.0000000000000000e+00 3.4729999999999999e+00 2.6098949999999999e+01 1.8169999999999999e+00 0 0 0
771 444 1 4.1499999999999998e-01 3.6423963893322311e+00 2.5174254022109146e+01 6.6003760950089809e+00 0 0 0
769 444 2 -8.2999999999999996e-01 2.9626253785919978e+00 2.5791858089069535e+01 6.8700212212476464e+00 0 0 0
2289 444 1 4.1499999999999998e-01 2.2277561060913356e+00 2.7924648250083312e+01 6.3528930431739754e+00 2 2 0
770 444 1 4.1499999999999998e-01 2.1959882754777404e+00 2.5245033341346272e+01 7.0417258175240676e+00 0 0 0
1760 444 1 4.1499999999999998e-01 3.7372914501163810e+00 2.7396492848895836e+01 7.2342318589768144e+00 -4 1 0
2539 444 2 -8.2999999999999996e-01 3.0219940195855943e+00 2.6999843062591744e+01 1.5301190814237762e+01 -4 1 0
931 444 2 -8.2999999999999996e-01 3.6878889228483760e+00 2.6815774557886687e+01 1.1876228542101725e+01 1 -3 0
2540 444 1 4.1499999999999998e-01 2.1023399859319114e+00 2.7260593588818555e+01 1.5251401971949134e+01 -4 1 0
933 444 1 4.1499999999999998e-01 2.7851611854334433e+00 2.6890751277180438e+01 1.2185572060143464e+01 1 -3 0
1711 444 2 -8.2999999999999996e-01 3.5027469977723298e+00 2.4784044313877200e+01 9.8771939164871014e+00 7 1 0
1712 444 1 4.1499999999999998e-01 3.5134509361671231e+00 2.5138180415181779e+01 1.0766410383878821e+01 7 1 0
2541 444 1 4.1499999999999998e-01 3.0339238536758311e+00 2.6281778954919165e+01 1.5934021236099952e+01 -4 1 0
2143 444 2 -8.2999999999999996e-01 3.0544918761125186e+00 2.4933185236382339e+01 1.7185332845093253e+01 1 -2 0
2145 444 1 4.1499999999999998e-01 3.9624649442746702e+00 2.4922326829455823e+01 1.7488151985647512e+01 1 -2 0
3200 444 4 0.0000000000000000e+00 3.4729999999999999e+00 3.1549700000000001e+01 0.0000000000000000e+00 0 0 0
3201 444 4 0.0000000000000000e+00 3.4766800000000000e+00 3.1567540000000001e+01 3.5851299999999999e+00 0 0 0
3204 444 4 0.0000000000000000e+00 3.4729999999999999e+00 2.9732749999999999e+01 1.8169999999999999e+00 0 0 0
755 444 1 4.1499999999999998e-01 2.8239241913193034e+00 3.0347666756798485e+01 6.6815177937916959e+00 1 7 0
74 444 1 4.1499999999999998e-01 2.9951335702928001e+00 3.2057794053783013e+01 7.2217871590051441e+00 -1 -5 0
73 444 2 -8.2999999999999996e-01 2.2785417446826908e+00 3.2666125578505287e+01 7.0410639375844379e+00 -1 -5 0
754 444 2 -8.2999999999999996e-01 3.6648159668655964e+00 3.0587489524562223e+01 7.0708992842119684e+00 1 7 0
756 444 1 4.1499999999999998e-01 3.9603018407717494e+00 2.9791556251613578e+01 7.5129516175815780e+00 1 7 0
1535 444 1 4.1499999999999998e-01 2.7263516810080195e+00 3.0883573396985774e+01 1.3196735872961165e+01 -2 1 0
1534 444 2 -8.2999999999999996e-01 2.6825705285330423e+00 3.0319572038422471e+01 1.3968887520813857e+01 -2 1 0
2530 444 2 -8.2999999999999996e-01 2.6751660601654170e+00 3.2086534563158168e+01 1.1811293303891750e+01 0 -1 0
2531 444 1 4.1499999999999998e-01 2.8302345992324716e+00 3.1268092760927676e+01 1.1339765269380255e+01 0 -1 0
1536 444 1 4.1499999999999998e-01 3.5502209244815717e+00 3.0389917166576552e+01 1.4366965927280470e+01 -2 1 0
2532 444 1 4.1499999999999998e-01 2.2809149852629518e+00 3.2667393757464183e+01 1.1160600875480810e+01 0 -1 0
67 444 2 -8.2999999999999996e-01 2.6488266148131392e+00 2.9744199355648885e+01 1.0502036262357484e+01 3 -1 0
68 444 1 4.1499999999999998e-01 2.4505253669438281e+00 2.8939169303190738e+01 1.0980403496387238e+01 3 -1 0
1501 444 2 -8.2999999999999996e-01 2.7321866215002588e+00 2.9931033935463173e+01 1.8796786711097564e+01 5 0 0
1502 444 1 4.1499999999999998e-01 2.3850840138809453e+00 3.0755840651477950e+01 1.8457012449129220e+01 5 0 0
1880 444 1 4.1499999999999998e-01 2.9932340201467134e+00 3.2207994260825878e+01 1.6389137422079575e+01 4 -1 0
1879 444 2 -8.2999999999999996e-01 2.4593133410782015e+00 3.2017988422218572e+01 1.7160538180398859e+01 4 -1 0
3054 444 4 0.0000000000000000e+00 5.2898399999999999e+00 6.6205000000000003e-01 0.0000000000000000e+00 0 0 0
3055 444 4 0.0000000000000000e+00 5.2939699999999998e+00 6.6041000000000005e-01 3.5851400000000000e+00 0 0 0
3057 444 4 0.0000000000000000e+00 5.2898399999999999e+00 2.4790000000000001e+00 1.8169999999999999e+00 0 0 0
649 444 2 -8.2999999999999996e-01 5.7750345230651785e+00 1.9883601370584767e+00 6.6624829276789006e+00 1 -4 0
651 444 1 4.1499999999999998e-01 4.8880004039891443e+00 2.1959955819864145e+00 6.3687314560294421e+00 1 -4 0
650 444 1 4.1499999999999998e-01 6.1165825509298699e+00 2.8169039837623671e+00 6.9987744783300458e+00 1 -4 0
1529 444 1 4.1499999999999998e-01 5.8272776486156719e+00 2.0964559084477941e-01 6.3831752707910274e+00 -3 5 0
382 444 2 -8.2999999999999996e-01 4.6513234490961519e+00 2.5670282858416149e+00 9.3419396782393207e+00 3 0 0
384 444 1 4.1499999999999998e-01 5.0107405826377081e+00 1.9273260071923786e+00 9.9566212994972627e+00 3 0 0
383 444 1 4.1499999999999998e-01 5.3249350076475643e+00 2.6568605319078702e+00 8.6678402089453979e+00 3 0 0
1695 444 1 4.1499999999999998e-01 4.4589248671423505e+00 3.3793191661264815e-01 1.4518270360185580e+01 1 -3 0
2412 444 1 4.1499999999999998e-01 5.3719280577988240e+00 1.5973864674025344e+00 1.2527614229826405e+01 1 -1 0
954 444 1 4.1499999999999998e-01 4.5768253812735153e+00 3.5257168941552757e+00 1.4889957804144801e+01 0 5 0
2410 444 2 -8.2999999999999996e-01 5.6276060124080489e+00 1.0815334932894765e+00 1.3292307970660834e+01 1 -1 0
791 444 1 4.1499999999999998e-01 5.8235503086990681e+00 1.3864337034122363e+00 1.9836642480797764e+01 0 -1 0
1600 444 2 -8.2999999999999996e-01 4.9240166510748180e+00 3.0832574846188726e-01 1.8671756750011294e+01 -5 -2 0
1797 444 1 4.1499999999999998e-01 6.0081472333778452e+00 2.8156078533441327e+00 1.6623833116359247e+01 -3 1 0
3076 444 4 0.0000000000000000e+00 5.2898399999999999e+00 4.2959500000000004e+00 0.0000000000000000e+00 0 0 0
3077 444 4 0.0000000000000000e+00 5.2898399999999999e+00 6.1128000000000000e+00 1.8169999999999999e+00 0 0 0
3092 444 4 0.0000000000000000e+00 5.2898399999999999e+00 7.9297500000000003e+00 0.0000000000000000e+00 0 0 0