Created by /apps/scripts/createLammpsInput.pl on Wed Mar 16 00:49:25 2022

        3486 atoms
        2012 bonds
        1012 angles
          12 dihedrals
           9 impropers

          13 atom types
           5 bond types
           5 angle types
           4 dihedral types
           1 improper types

           0.000000  30.466200 xlo xhi
           0.000000  35.179200 ylo yhi
           0.000000  65.000000 zlo zhi

Masses

    1   1.0079 
    2  15.9994 
    3  39.0983 
    4 107.8682 
    5  15.9994 
    6  12.0110 
    7  15.9994 
    8   1.0079 
    9  12.0110 
   10  15.9994 
   11  15.9994 
   12  15.9994 
   13   1.0079 
                

Bond Coeffs

    1             450          0.9572 # HW OW 
    2             570           1.229 # C1 O2 
    3             450           1.364 # C1 O4 
    4             570           1.229 # C1 O3 
    5             553           0.945 # O4 H5                 

Angle Coeffs

    1             100          123.32 # O2 C1 O4 
    2              85             124 # O2 C1 O3 
    3              55          104.52 # HW OW HW 
    4              35             113 # C1 O4 H5 
    5             100          123.32 # O3 C1 O4                 

Dihedral Coeffs

    1           0.922               1             180               0               # O2 C1 O4 H5 
    2           3.741               2               0               0               # 1O2 C1 O4 H5 
    3           0.922               1               0               0               # O3 C1 O4 H5 
    4           3.741               2             180               0               # 1O3 C1 O4 H5                 

Improper Coeffs

    1              21               0 # C1 X X X 

Atoms

       1      444        3     1.00000    5.89305    1.52914   14.43415    0    0    0
       2      444        3     1.00000   19.39003   13.14524   13.37473    0    0    0
       3      444        3     1.00000   16.77727   31.82578   15.11301    0    0    0
       4      444        9     1.08000    2.61632    9.99535   11.20291    0    0    0
       5      444       10    -0.86000    3.68768   10.40116   11.63281    0    0    0
       6      444       11    -0.80000    2.01906    9.07172   11.74058    0    0    0
       7      444       12    -0.78000    2.10820   10.59867   10.11144    0    0    0
       8      444       13     0.36000    2.76368   11.24685    9.92955    0    0    0
       9      444        9     1.08000    9.11845   28.16965   14.05033    0    0    0
      10      444       10    -0.86000   10.32335   28.37425   14.11035    0    0    0
      11      444       11    -0.80000    8.41203   28.74079   13.22952    0    0    0
      12      444       12    -0.78000    8.58630   27.29072   14.92084    0    0    0
      13      444       13     0.36000    9.34370   27.02307   15.40827    0    0    0
      14      444        9     1.08000   17.30367   15.60854   12.57710    0    0    0
      15      444       10    -0.86000   18.06741   15.24681   13.46200    0    0    0
      16      444       11    -0.80000   16.56325   14.81733   12.00727    0    0    0
      17      444       12    -0.78000   17.30070   16.91343   12.24433    0    0    0
      18      444       13     0.36000   17.94806   17.26087   12.83007    0    0    0
      19      444        2    -0.83000    2.50309   -0.76197   31.00955    0    0    0
      20      444        1     0.41500    2.59967   -1.60589   30.56829    0    0    0
      21      444        1     0.41500    3.38733   -0.39572   31.02328    0    0    0
      22      444        2    -0.83000   19.38925   31.05440   19.39453    0    0    0
      23      444        1     0.41500   19.30413   30.34509   18.75745    0    0    0
      24      444        1     0.41500   20.02242   31.65519   19.00161    0    0    0
      25      444        2    -0.83000   25.95985   25.27721   10.63077    0    0    0
      26      444        1     0.41500   26.75047   25.38177   10.10141    0    0    0
      27      444        1     0.41500   25.68599   24.37298   10.47707    0    0    0
      28      444        2    -0.83000   23.67300   23.68481   11.65067    0    0    0
      29      444        1     0.41500   23.68346   23.16257   12.45279    0    0    0
      30      444        1     0.41500   24.36575   23.30670   11.10906    0    0    0
      31      444        2    -0.83000   19.70219   14.46477   28.16674    0    0    0
      32      444        1     0.41500   19.23748   15.27262   28.38512    0    0    0
      33      444        1     0.41500   19.10557   13.76522   28.43301    0    0    0
      34      444        2    -0.83000    1.91131    0.00637   23.04661    0    0    0
      35      444        1     0.41500    1.09723   -0.30008   22.64712    0    0    0
      36      444        1     0.41500    1.98455    0.92019   22.77137    0    0    0
      37      444        2    -0.83000   25.97723   10.70716   14.32725    0    0    0
      38      444        1     0.41500   25.25033   10.08906   14.25079    0    0    0
      39      444        1     0.41500   26.08021   11.06668   13.44613    0    0    0
      40      444        2    -0.83000   25.34139   22.48066   24.83731    0    0    0
      41      444        1     0.41500   26.00871   22.23627   24.19608    0    0    0
      42      444        1     0.41500   24.53256   22.09492   24.50084    0    0    0
      43      444        2    -0.83000   15.52052   27.59377   33.73019    0    0    0
      44      444        1     0.41500   15.30566   27.32141   32.83805    0    0    0
      45      444        1     0.41500   16.22145   27.00038   34.00001    0    0    0
      46      444        2    -0.83000    8.77012    9.43263   10.50047    0    0    0
      47      444        1     0.41500    8.42411    9.40004   11.39235    0    0    0
      48      444        1     0.41500    9.71905    9.48809   10.61307    0    0    0
      49      444        2    -0.83000    7.35899    2.27855   16.55901    0    0    0
      50      444        1     0.41500    7.99208    2.81638   16.08344    0    0    0
      51      444        1     0.41500    7.89226    1.62937   17.01773    0    0    0
      52      444        2    -0.83000   19.88026    1.97551   11.05552    0    0    0
      53      444        1     0.41500   19.01243    2.13721   10.68540    0    0    0
      54      444        1     0.41500   19.93548    1.02286   11.13054    0    0    0
      55      444        2    -0.83000   20.01468    0.09750   14.18256    0    0    0
      56      444        1     0.41500   20.80064   -0.41039   13.98106    0    0    0
      57      444        1     0.41500   20.23743    0.57814   14.97981    0    0    0
      58      444        2    -0.83000   14.08808   19.42931   18.93416    0    0    0
      59      444        1     0.41500   13.23004   19.17670   19.27502    0    0    0
      60      444        1     0.41500   14.63192   19.54313   19.71360    0    0    0
      61      444        2    -0.83000   14.62482   30.72783   13.95778    0    0    0
      62      444        1     0.41500   15.11384   31.09191   14.69571    0    0    0
      63      444        1     0.41500   13.98209   30.14390   14.36051    0    0    0
      64      444        2    -0.83000   14.62522    9.06646   29.91578    0    0    0
      65      444        1     0.41500   14.34023    9.51618   30.71124    0    0    0
      66      444        1     0.41500   15.57108    8.96572   30.02282    0    0    0
      67      444        2    -0.83000   13.34518   21.93731   14.49392    0    0    0
      68      444        1     0.41500   12.85356   21.19564   14.14110    0    0    0
      69      444        1     0.41500   13.48312   21.71733   15.41522    0    0    0
      70      444        2    -0.83000    8.68123   30.06333   31.76756    0    0    0
      71      444        1     0.41500    8.71126   30.09474   30.81134    0    0    0
      72      444        1     0.41500    8.74223   30.97896   32.03981    0    0    0
      73      444        2    -0.83000   25.88263   15.72113   24.51728    0    0    0
      74      444        1     0.41500   26.63488   15.13024   24.48254    0    0    0
      75      444        1     0.41500   25.41407   15.56152   23.69799    0    0    0
      76      444        2    -0.83000   -1.16281    3.39945   13.54553    0    0    0
      77      444        1     0.41500   -0.66534    2.67251   13.92017    0    0    0
      78      444        1     0.41500   -0.51919    3.89486   13.03900    0    0    0
      79      444        2    -0.83000    8.43462    5.42271   31.53140    0    0    0
      80      444        1     0.41500    7.57561    5.79260   31.32765    0    0    0
      81      444        1     0.41500    8.33340    4.48303   31.37971    0    0    0
      82      444        2    -0.83000    5.09682   28.96868   23.33168    0    0    0
      83      444        1     0.41500    5.44573   28.15523   22.96726    0    0    0
      84      444        1     0.41500    4.84787   29.48713   22.56650    0    0    0
      85      444        2    -0.83000   22.10105   28.57607   15.54387    0    0    0
      86      444        1     0.41500   21.78265   27.73008   15.85878    0    0    0
      87      444        1     0.41500   22.75702   28.35464   14.88289    0    0    0
      88      444        2    -0.83000    6.91708   15.56501   18.45333    0    0    0
      89      444        1     0.41500    7.21364   16.08963   17.70964    0    0    0
      90      444        1     0.41500    7.71862   15.18725   18.81533    0    0    0
      91      444        2    -0.83000   10.12024   11.10968   22.61453    0    0    0
      92      444        1     0.41500   11.00994   10.80522   22.79338    0    0    0
      93      444        1     0.41500    9.83218   11.50557   23.43706    0    0    0
      94      444        2    -0.83000   25.96777   32.15776   14.67893    0    0    0
      95      444        1     0.41500   25.67260   32.74637   13.98419    0    0    0
      96      444        1     0.41500   25.16138   31.79033   15.04085    0    0    0
      97      444        2    -0.83000   15.52416   31.36423   28.13955    0    0    0
      98      444        1     0.41500   15.75626   31.93278   28.87379    0    0    0
      99      444        1     0.41500   14.76073   30.87527   28.44665    0    0    0
     100      444        2    -0.83000   13.63992   22.12552   30.45982    0    0    0
     101      444        1     0.41500   13.58501   22.52225   29.59043    0    0    0
     102      444        1     0.41500   14.38401   22.56097   30.87575    0    0    0
     103      444        2    -0.83000   19.94982   17.41785   35.82274    0    0    0
     104      444        1     0.41500   19.20118   17.42759   35.22632    0    0    0
     105      444        1     0.41500   20.57039   16.81110   35.41905    0    0    0
     106      444        2    -0.83000    0.90203   25.27841   28.00300    0    0    0
     107      444        1     0.41500    1.35615   26.02274   27.60803    0    0    0
     108      444        1     0.41500    0.00851   25.33529   27.66440    0    0    0
     109      444        2    -0.83000   26.40102   27.05396    8.37519    0    0    0
     110      444        1     0.41500   26.55022   26.83984    7.45424    0    0    0
     111      444        1     0.41500   26.54382   27.99897    8.42802    0    0    0
     112      444        2    -0.83000    1.43158   19.88796   11.44710    0    0    0
     113      444        1     0.41500    0.87277   20.64344   11.62935    0    0    0
     114      444        1     0.41500    0.93362   19.13741   11.77104    0    0    0
     115      444        2    -0.83000   11.71453   20.80295   29.04199    0    0    0
     116      444        1     0.41500   10.80314   20.73595   28.75719    0    0    0
     117      444        1     0.41500   11.99678   19.89578   29.15871    0    0    0
     118      444        2    -0.83000    3.98641   27.67359   31.87700    0    0    0
     119      444        1     0.41500    4.13051   28.61556   31.96708    0    0    0
     120      444        1     0.41500    3.05455   27.59170   31.67408    0    0    0
     121      444        2    -0.83000   19.36637    2.41152   24.30593    0    0    0
     122      444        1     0.41500   20.16002    2.87253   24.57767    0    0    0
     123      444        1     0.41500   18.73407    2.59164   25.00162    0    0    0
     124      444        2    -0.83000    7.33602   19.76875   20.71978    0    0    0
     125      444        1     0.41500    8.25527   19.51912   20.62558    0    0    0
     126      444        1     0.41500    7.23214   19.95420   21.65309    0    0    0
     127      444        2    -0.83000    5.77762   32.73605   11.75722    0    0    0
     128      444        1     0.41500    4.87548   32.88167   11.47226    0    0    0
     129      444        1     0.41500    5.93913   31.80964   11.57854    0    0    0
     130      444        2    -0.83000    5.87447    9.11630   20.84052    0    0    0
     131      444        1     0.41500    6.35997    9.93790   20.91487    0    0    0
     132      444        1     0.41500    5.00138    9.37898   20.54906    0    0    0
     133      444        2    -0.83000   19.82491    6.12524   17.52983    0    0    0
     134      444        1     0.41500   19.64230    6.07387   16.59161    0    0    0
     135      444        1     0.41500   20.14636    5.25344   17.75984    0    0    0
     136      444        2    -0.83000   10.95936   16.89029   18.60831    0    0    0
     137      444        1     0.41500   11.32833   16.44644   19.37195    0    0    0
     138      444        1     0.41500   11.67610   17.43009   18.27493    0    0    0
     139      444        2    -0.83000   10.67257   21.22231   11.79112    0    0    0
     140      444        1     0.41500   11.11687   21.90199   12.29798    0    0    0
     141      444        1     0.41500   11.36924   20.61532   11.54118    0    0    0
     142      444        2    -0.83000    1.69847   27.35608   10.93680    0    0    0
     143      444        1     0.41500    0.87823   27.10583   10.51159    0    0    0
     144      444        1     0.41500    1.74453   28.30610   10.82902    0    0    0
     145      444        2    -0.83000    9.45509   10.77869   28.33826    0    0    0
     146      444        1     0.41500    8.77181   10.11153   28.40360    0    0    0
     147      444        1     0.41500   10.24008   10.29401   28.08307    0    0    0
     148      444        2    -0.83000   20.34539   32.90514   32.60108    0    0    0
     149      444        1     0.41500   20.58296   32.43454   31.80209    0    0    0
     150      444        1     0.41500   19.38942   32.86478   32.62809    0    0    0
     151      444        2    -0.83000   23.65549    7.20335   12.65029    0    0    0
     152      444        1     0.41500   23.74383    8.03234   13.12062    0    0    0
     153      444        1     0.41500   22.77132    7.22804   12.28443    0    0    0
     154      444        2    -0.83000   19.80446   27.58660   28.68900    0    0    0
     155      444        1     0.41500   19.83950   27.12098   29.52458    0    0    0
     156      444        1     0.41500   20.70747   27.86084   28.52902    0    0    0
     157      444        2    -0.83000   26.13554    2.86115   34.40644    0    0    0
     158      444        1     0.41500   26.92584    2.64182   34.89999    0    0    0
     159      444        1     0.41500   25.88113    3.72456   34.73201    0    0    0
     160      444        2    -0.83000   13.86819    1.44981   17.25887    0    0    0
     161      444        1     0.41500   13.60074    0.83548   17.94248    0    0    0
     162      444        1     0.41500   14.61411    1.02630   16.83409    0    0    0
     163      444        2    -0.83000   13.13997    0.54735   26.09763    0    0    0
     164      444        1     0.41500   12.59258   -0.17635   25.79293    0    0    0
     165      444        1     0.41500   13.93809    0.48189   25.57325    0    0    0
     166      444        2    -0.83000   22.17687   25.85769   26.99893    0    0    0
     167      444        1     0.41500   21.87834   24.94922   27.04143    0    0    0
     168      444        1     0.41500   21.37243   26.37151   26.92716    0    0    0
     169      444        2    -0.83000   10.23961    3.08622    8.60921    0    0    0
     170      444        1     0.41500   10.38935    3.86619    9.14351    0    0    0
     171      444        1     0.41500    9.35267    3.19663    8.26660    0    0    0
     172      444        2    -0.83000    1.04810   21.34042   21.32447    0    0    0
     173      444        1     0.41500    1.17194   20.95832   20.45561    0    0    0
     174      444        1     0.41500    1.46729   20.72045   21.92125    0    0    0
     175      444        2    -0.83000   19.68949   19.37532   26.83673    0    0    0
     176      444        1     0.41500   20.42249   19.98250   26.93838    0    0    0
     177      444        1     0.41500   20.09645   18.54973   26.57401    0    0    0
     178      444        2    -0.83000    8.33065   17.30433   11.88387    0    0    0
     179      444        1     0.41500    9.04409   17.66561   12.40990    0    0    0
     180      444        1     0.41500    8.70547   16.52449   11.47443    0    0    0
     181      444        2    -0.83000   18.04470   19.50651   29.67216    0    0    0
     182      444        1     0.41500   17.99511   20.28278   30.23001    0    0    0
     183      444        1     0.41500   17.40065   19.66531   28.98209    0    0    0
     184      444        2    -0.83000    2.10876   16.44321   30.13640    0    0    0
     185      444        1     0.41500    1.90286   16.60834   31.05648    0    0    0
     186      444        1     0.41500    1.97273   15.50228   30.02518    0    0    0
     187      444        2    -0.83000    2.36840   12.31881   32.45907    0    0    0
     188      444        1     0.41500    3.10045   11.70332   32.49814    0    0    0
     189      444        1     0.41500    2.72277   13.13577   32.81007    0    0    0
     190      444        2    -0.83000    7.49475   10.31008   25.36390    0    0    0
     191      444        1     0.41500    7.72847   11.22960   25.49085    0    0    0
     192      444        1     0.41500    8.05405   10.01743   24.64435    0    0    0
     193      444        2    -0.83000   19.65071   13.70264    9.67947    0    0    0
     194      444        1     0.41500   19.17263   13.91452    8.87774    0    0    0
     195      444        1     0.41500   20.22935   14.45225    9.81904    0    0    0
     196      444        2    -0.83000   18.57476   -1.36653   12.94144    0    0    0
     197      444        1     0.41500   18.68391   -2.21619   12.51432    0    0    0
     198      444        1     0.41500   17.64027   -1.31742   13.14271    0    0    0
     199      444        2    -0.83000   25.98642   19.91375   33.31462    0    0    0
     200      444        1     0.41500   25.97105   20.66055   33.91318    0    0    0
     201      444        1     0.41500   26.16987   20.29732   32.45702    0    0    0
     202      444        2    -0.83000    3.87407   20.63665   10.88074    0    0    0
     203      444        1     0.41500    3.65926   20.61023    9.94831    0    0    0
     204      444        1     0.41500    3.02896   20.73655   11.31893    0    0    0
     205      444        2    -0.83000   16.10926    2.55801   30.44718    0    0    0
     206      444        1     0.41500   15.59094    3.36065   30.50542    0    0    0
     207      444        1     0.41500   16.90844    2.75240   30.93683    0    0    0
     208      444        2    -0.83000   17.41012   25.19577   16.15926    0    0    0
     209      444        1     0.41500   17.97033   25.27340   16.93151    0    0    0
     210      444        1     0.41500   16.83946   24.45147   16.35064    0    0    0
     211      444        2    -0.83000   20.74280    4.16895   20.56602    0    0    0
     212      444        1     0.41500   21.68862    4.08826   20.44284    0    0    0
     213      444        1     0.41500   20.48213    4.87079   19.96963    0    0    0
     214      444        2    -0.83000   26.66236    0.64127   21.09930    0    0    0
     215      444        1     0.41500   27.15111    0.76685   20.28590    0    0    0
     216      444        1     0.41500   26.69510    1.49394   21.53304    0    0    0
     217      444        2    -0.83000    5.64210   27.29868    8.87751    0    0    0
     218      444        1     0.41500    4.84599   27.80460    8.71473    0    0    0
     219      444        1     0.41500    6.24725   27.92478    9.27501    0    0    0
     220      444        2    -0.83000   15.66670   12.01998   11.62668    0    0    0
     221      444        1     0.41500   16.16599   11.58198   12.31595    0    0    0
     222      444        1     0.41500   14.90665   11.45553   11.48531    0    0    0
     223      444        2    -0.83000    5.00858    1.09941    9.67012    0    0    0
     224      444        1     0.41500    4.20152    1.20743    9.16688    0    0    0
     225      444        1     0.41500    5.56488    1.82642    9.39045    0    0    0
     226      444        2    -0.83000   14.44951   30.06610   16.57028    0    0    0
     227      444        1     0.41500   15.08423   30.51557   17.12828    0    0    0
     228      444        1     0.41500   13.88112   29.59818   17.18202    0    0    0
     229      444        2    -0.83000   27.22504    4.89982   12.05440    0    0    0
     230      444        1     0.41500   26.77719    4.50377   12.80193    0    0    0
     231      444        1     0.41500   27.15545    5.84254   12.20489    0    0    0
     232      444        2    -0.83000    5.85279   28.44996   30.00736    0    0    0
     233      444        1     0.41500    6.38672   27.65652   29.96722    0    0    0
     234      444        1     0.41500    4.96847   28.15543   29.78956    0    0    0
     235      444        2    -0.83000    8.11818   22.58226   32.14333    0    0    0
     236      444        1     0.41500    8.10880   21.77795   32.66219    0    0    0
     237      444        1     0.41500    7.49102   22.42052   31.43851    0    0    0
     238      444        2    -0.83000   20.44892   19.24286   20.49309    0    0    0
     239      444        1     0.41500   19.79304   18.55381   20.59925    0    0    0
     240      444        1     0.41500   21.03433   18.91390   19.81096    0    0    0
     241      444        2    -0.83000   14.16134   13.90042   10.23348    0    0    0
     242      444        1     0.41500   15.07227   14.00992   10.50633    0    0    0
     243      444        1     0.41500   13.67702   13.79222   11.05201    0    0    0
     244      444        2    -0.83000   23.10814   30.00714   20.16449    0    0    0
     245      444        1     0.41500   23.36335   29.97898   21.08662    0    0    0
     246      444        1     0.41500   23.86047   30.39683   19.71908    0    0    0
     247      444        2    -0.83000   11.12485   23.96627   26.26339    0    0    0
     248      444        1     0.41500   11.16349   23.07363   25.91992    0    0    0
     249      444        1     0.41500   10.83071   24.49600   25.52236    0    0    0
     250      444        2    -0.83000    4.57418    1.65703   25.12550    0    0    0
     251      444        1     0.41500    4.73506    2.56867   24.88205    0    0    0
     252      444        1     0.41500    4.01013    1.31887   24.42998    0    0    0
     253      444        2    -0.83000   19.19944   16.35112   30.50595    0    0    0
     254      444        1     0.41500   19.11777   16.10942   31.42850    0    0    0
     255      444        1     0.41500   19.61186   17.21481   30.51972    0    0    0
     256      444        2    -0.83000   10.91829   27.01076   16.37344    0    0    0
     257      444        1     0.41500   11.25075   26.16364   16.07663    0    0    0
     258      444        1     0.41500   10.67782   27.46958   15.56854    0    0    0
     259      444        2    -0.83000   29.29070   14.90098   11.73948    0    0    0
     260      444        1     0.41500   29.32344   15.73422   12.20949    0    0    0
     261      444        1     0.41500   28.78818   15.09182   10.94745    0    0    0
     262      444        2    -0.83000   12.95547   10.08922   20.97306    0    0    0
     263      444        1     0.41500   13.23939   10.14590   21.88545    0    0    0
     264      444        1     0.41500   13.30677   10.87953   20.56289    0    0    0
     265      444        2    -0.83000   24.95071    7.16361   14.90478    0    0    0
     266      444        1     0.41500   25.62561    7.80542   15.12576    0    0    0
     267      444        1     0.41500   24.76247    7.32216   13.97977    0    0    0
     268      444        2    -0.83000   24.17458   16.62665   35.23414    0    0    0
     269      444        1     0.41500   24.19856   16.26693   36.12087    0    0    0
     270      444        1     0.41500   25.07087   16.91959   35.06967    0    0    0
     271      444        2    -0.83000    6.25404   25.99295   23.62932    0    0    0
     272      444        1     0.41500    5.85708   26.04727   24.49866    0    0    0
     273      444        1     0.41500    6.57369   25.09283   23.56731    0    0    0
     274      444        2    -0.83000   -0.52312    0.43540   35.99500    0    0    0
     275      444        1     0.41500   -0.68403    1.28044   35.57513    0    0    0
     276      444        1     0.41500   -1.27243   -0.10429   35.74306    0    0    0
     277      444        2    -0.83000    3.25694   25.02363   27.98884    0    0    0
     278      444        1     0.41500    3.44200   24.22676   28.48587    0    0    0
     279      444        1     0.41500    3.84002   25.68246   28.36587    0    0    0
     280      444        2    -0.83000   17.91924    9.74580   17.98481    0    0    0
     281      444        1     0.41500   17.36911    9.13876   18.47990    0    0    0
     282      444        1     0.41500   18.62204    9.98129   18.59050    0    0    0
     283      444        2    -0.83000   13.85502    3.02828   24.06203    0    0    0
     284      444        1     0.41500   14.55342    2.59623   24.55380    0    0    0
     285      444        1     0.41500   13.71472    2.46604   23.30018    0    0    0
     286      444        2    -0.83000    1.26698   12.98178   11.32373    0    0    0
     287      444        1     0.41500    1.94595   13.64501   11.19971    0    0    0
     288      444        1     0.41500    0.48776   13.47948   11.57140    0    0    0
     289      444        2    -0.83000   17.54039   21.79006   31.14619    0    0    0
     290      444        1     0.41500   17.14755   22.49867   30.63652    0    0    0
     291      444        1     0.41500   16.79391   21.30723   31.50099    0    0    0
     292      444        2    -0.83000   12.20413   15.54263   17.03283    0    0    0
     293      444        1     0.41500   11.39172   15.30447   17.47954    0    0    0
     294      444        1     0.41500   12.88613   15.06353   17.50354    0    0    0
     295      444        2    -0.83000   -0.66608   25.28212   33.77879    0    0    0
     296      444        1     0.41500   -0.35107   26.12879   34.09532    0    0    0
     297      444        1     0.41500   -0.14459   24.63782   34.25745    0    0    0
     298      444        2    -0.83000    0.40275    9.99097   28.31511    0    0    0
     299      444        1     0.41500    0.54132   10.86309   27.94579    0    0    0
     300      444        1     0.41500   -0.52544    9.81152   28.16514    0    0    0
     301      444        2    -0.83000   -0.36908    8.23915   23.82802    0    0    0
     302      444        1     0.41500   -0.27705    8.37732   24.77072    0    0    0
     303      444        1     0.41500   -1.20375    8.65149   23.60542    0    0    0
     304      444        2    -0.83000   25.14910    3.17317    7.45759    0    0    0
     305      444        1     0.41500   25.45916    2.64904    6.71908    0    0    0
     306      444        1     0.41500   25.53718    2.75672    8.22713    0    0    0
     307      444        2    -0.83000   16.37444    3.47346   20.64899    0    0    0
     308      444        1     0.41500   16.39845    2.70764   21.22274    0    0    0
     309      444        1     0.41500   15.68085    3.27932   20.01853    0    0    0
     310      444        2    -0.83000   -0.56388    5.01960   11.65732    0    0    0
     311      444        1     0.41500   -1.22303    4.36416   11.88574    0    0    0
     312      444        1     0.41500   -0.27921    4.77673   10.77627    0    0    0
     313      444        2    -0.83000    2.24778   17.58979   11.20130    0    0    0
     314      444        1     0.41500    1.33147   17.78711   11.39548    0    0    0
     315      444        1     0.41500    2.54145   18.32237   10.65971    0    0    0
     316      444        2    -0.83000   10.14807    8.02340   33.70850    0    0    0
     317      444        1     0.41500    9.55033    7.54475   33.13419    0    0    0
     318      444        1     0.41500   10.51013    8.71530   33.15497    0    0    0
     319      444        2    -0.83000    9.05486    4.31789   26.67075    0    0    0
     320      444        1     0.41500    9.96035    4.35536   26.36267    0    0    0
     321      444        1     0.41500    8.78955    5.23433   26.74803    0    0    0
     322      444        2    -0.83000   17.17413    9.78016   12.35943    0    0    0
     323      444        1     0.41500   16.66765    9.64189   13.15981    0    0    0
     324      444        1     0.41500   17.47520    8.90590   12.11193    0    0    0
     325      444        2    -0.83000    2.29233    1.78524   16.72065    0    0    0