LAMMPS data file via write_data, version 11 Aug 2017, timestep = 1000000

3558 atoms
13 atom types
2024 bonds
5 bond types
1018 angles
5 angle types
12 dihedrals
4 dihedral types
9 impropers
1 improper types

0.0000000000000000e+00 3.2704500000000003e+01 xlo xhi
0.0000000000000000e+00 3.2704500000000003e+01 ylo yhi
0.0000000000000000e+00 8.0000000000000000e+01 zlo zhi

Masses

1 1.0079
2 15.9994
3 39.0983
4 63.546
5 15.9994
6 12.011
7 15.9994
8 1.0079
9 12.011
10 15.9994
11 15.9994
12 15.9994
13 1.0079

Bond Coeffs # harmonic

1 450 0.9572
2 570 1.229
3 450 1.364
4 570 1.229
5 553 0.945

Angle Coeffs # harmonic

1 100 123.32
2 85 124
3 55 104.52
4 35 113
5 100 123.32

Dihedral Coeffs # charmm

1 0.922 1 180 0
2 3.741 2 0 0
3 0.922 1 0 0
4 3.741 2 180 0

Improper Coeffs # umbrella

1 21 0

Atoms # full

3049 444 4 0.0000000000000000e+00 1.6558700000000000e+00 6.6154000000000002e-01 3.5790600000000001e+00 0 0 0
3051 444 4 0.0000000000000000e+00 1.6560500000000000e+00 2.4790000000000001e+00 1.8169999999999999e+00 0 0 0
3060 444 4 0.0000000000000000e+00 1.6560500000000000e+00 6.6205000000000003e-01 0.0000000000000000e+00 0 0 0
2551 444 2 -8.2999999999999996e-01 1.3193955616192969e+00 1.1352325350147143e+00 7.1006912482884985e+00 4 -3 0
2552 444 1 4.1499999999999998e-01 4.6134722055182426e-01 1.5556670440969642e+00 7.0439485400489072e+00 4 -3 0
2553 444 1 4.1499999999999998e-01 1.9357562845763863e+00 1.8604854458417008e+00 7.2023750936662907e+00 4 -3 0
436 444 2 -8.2999999999999996e-01 8.7876830846127529e-01 3.9212033433812494e+00 9.7850759947141093e+00 2 0 0
1176 444 1 4.1499999999999998e-01 1.3635580742751408e+00 2.1635814764097110e+00 1.0349397551033823e+01 -1 -2 0
1382 444 1 4.1499999999999998e-01 9.7229984718912721e-01 1.4125030695638399e+00 1.3296393817269889e+01 0 1 0
1175 444 1 4.1499999999999998e-01 1.8886744375775320e+00 9.0090979985965036e-01 9.6999298340554461e+00 -1 -2 0
1383 444 1 4.1499999999999998e-01 4.6724985598175234e-01 7.0582901605284920e-01 1.2056461807375870e+01 0 1 0
2538 444 1 4.1499999999999998e-01 2.0188523852442701e+00 3.4750122556043217e+00 1.3484997533784819e+01 2 2 0
1174 444 2 -8.2999999999999996e-01 1.8420504555942303e+00 1.3568346011492085e+00 1.0540281356501373e+01 -1 -2 0
437 444 1 4.1499999999999998e-01 1.8174738373738661e+00 4.0676747271462599e+00 9.9017375225397757e+00 2 0 0
1381 444 2 -8.2999999999999996e-01 3.7142838100900388e-01 7.2519447636804757e-01 1.3008656894088166e+01 0 1 0
1280 444 1 4.1499999999999998e-01 1.1101159464138273e+00 1.7355629790707887e+00 1.9589132506612042e+01 1 -3 0
1279 444 2 -8.2999999999999996e-01 1.7450243936316190e-01 1.5877208975324029e+00 1.9726979959887650e+01 1 -3 0
3066 444 4 0.0000000000000000e+00 1.6560500000000000e+00 4.2959500000000004e+00 0.0000000000000000e+00 0 0 0
3067 444 4 0.0000000000000000e+00 1.6547200000000000e+00 4.2929000000000004e+00 3.5714500000000000e+00 0 0 0
3069 444 4 0.0000000000000000e+00 1.6560500000000000e+00 6.1128000000000000e+00 1.8169999999999999e+00 0 0 0
3086 444 4 0.0000000000000000e+00 1.6560500000000000e+00 7.9297500000000003e+00 0.0000000000000000e+00 0 0 0
3087 444 4 0.0000000000000000e+00 1.6568600000000000e+00 7.9363799999999998e+00 3.5739800000000002e+00 0 0 0
1688 444 1 4.1499999999999998e-01 5.9720245870643750e-02 6.2163472309013770e+00 7.6119783141013899e+00 3 3 0
1687 444 2 -8.2999999999999996e-01 1.6470070478208190e-01 5.3093287884191858e+00 7.3246992369906403e+00 3 3 0
1689 444 1 4.1499999999999998e-01 1.0697720193258911e+00 5.2581649383571785e+00 7.0173543253860267e+00 3 3 0
2048 444 1 4.1499999999999998e-01 4.3175822960002314e-01 5.2647752568106032e+00 1.4322584123445875e+01 -3 -1 0
1296 444 1 4.1499999999999998e-01 1.7680226850719332e+00 7.3454528836410962e+00 1.1026356505962829e+01 1 0 0
2047 444 2 -8.2999999999999996e-01 7.1444642569403272e-01 4.6353641107613264e+00 1.3659137755304178e+01 -3 -1 0
1549 444 2 -8.2999999999999996e-01 3.5526795156239716e-02 7.8892395766978387e+00 8.6350684581920731e+00 -3 -1 0
438 444 1 4.1499999999999998e-01 6.5219489850394330e-01 4.4266892815550491e+00 9.0044478572100406e+00 2 0 0
1295 444 1 4.1499999999999998e-01 1.3311972702325483e+00 7.3025292095255869e+00 9.5774823850929867e+00 1 0 0
2547 444 1 4.1499999999999998e-01 1.0528459930714420e+00 5.2615990692460679e+00 1.9060031981047793e+01 -2 0 0
2545 444 2 -8.2999999999999996e-01 1.6751752866026006e+00 4.6505443440858372e+00 1.8665632979178163e+01 -2 0 0
3089 444 4 0.0000000000000000e+00 1.6560500000000000e+00 9.7467000000000006e+00 1.8169999999999999e+00 0 0 0
3107 444 4 0.0000000000000000e+00 1.6558700000000000e+00 1.1563040000000001e+01 3.5790600000000001e+00 0 0 0
3118 444 4 0.0000000000000000e+00 1.6560500000000000e+00 1.1563549999999999e+01 0.0000000000000000e+00 0 0 0
14 444 1 4.1499999999999998e-01 1.0237850805154003e+00 1.0977478351234902e+01 6.6060272185967932e+00 2 1 0
1088 444 1 4.1499999999999998e-01 1.7725315953098519e+00 8.9413361895755763e+00 6.6201069619114712e+00 -3 0 0
13 444 2 -8.2999999999999996e-01 5.2548424812440775e-01 1.0188924704497261e+01 6.8207624765432318e+00 2 1 0
2512 444 2 -8.2999999999999996e-01 1.5500434549595434e+00 1.2093065150356322e+01 9.2103187317506148e+00 0 -1 0
338 444 1 4.1499999999999998e-01 1.3376495778406265e+00 9.6179875976809370e+00 1.5155013147644272e+01 -2 -2 0
1551 444 1 4.1499999999999998e-01 4.9207698216235429e-01 8.5147441936840700e+00 8.0724508776603034e+00 -3 -1 0
2625 444 1 4.1499999999999998e-01 7.7922267198872930e-01 1.1883427301181667e+01 1.4081174492377425e+01 3 -2 0
309 444 1 4.1499999999999998e-01 9.4755877776710373e-01 1.0061967091806892e+01 1.9151259866757105e+01 1 2 0
307 444 2 -8.2999999999999996e-01 5.4714173619099443e-02 1.0401395473281589e+01 1.9089223001590817e+01 1 2 0
3109 444 4 0.0000000000000000e+00 1.6560500000000000e+00 1.3380500000000000e+01 1.8169999999999999e+00 0 0 0
3124 444 4 0.0000000000000000e+00 1.6560500000000000e+00 1.5197450000000000e+01 0.0000000000000000e+00 0 0 0
3125 444 4 0.0000000000000000e+00 1.6547200000000000e+00 1.5194400000000000e+01 3.5714500000000000e+00 0 0 0
1504 444 2 -8.2999999999999996e-01 1.4062179079005701e+00 1.3029462870473463e+01 6.7228861852536062e+00 5 0 0
1505 444 1 4.1499999999999998e-01 6.1699801051993286e-01 1.3547657260243266e+01 6.5652841458895770e+00 5 0 0
3010 444 2 -8.2999999999999996e-01 1.8453949942011274e+00 1.6175158286213730e+01 6.8393378266858669e+00 -2 -1 0
2513 444 1 4.1499999999999998e-01 1.5639489485287925e+00 1.2412810093450942e+01 8.3082086019442958e+00 0 -1 0
493 444 2 -8.2999999999999996e-01 1.8625429536482718e+00 1.5749585346111850e+01 9.5342624588621518e+00 0 1 0
2457 444 1 4.1499999999999998e-01 4.2885314160456561e-01 1.5734086418587527e+01 1.2809178060718176e+01 3 -5 0
494 444 1 4.1499999999999998e-01 1.8133152966841459e+00 1.5686763990204627e+01 8.5803956124781546e+00 0 1 0
495 444 1 4.1499999999999998e-01 1.0151124016087787e+00 1.5426249759100699e+01 9.8401176552193341e+00 0 1 0
612 444 1 4.1499999999999998e-01 1.6359716838644411e+00 1.4750907627220844e+01 1.1668558030429717e+01 0 -1 0
1679 444 1 4.1499999999999998e-01 5.7306546370558564e-01 1.3756034059246044e+01 1.9860745369845819e+01 1 -1 0
1209 444 1 4.1499999999999998e-01 7.7082909440209313e-01 1.5547470948726726e+01 1.6272104561446795e+01 0 -6 0
3127 444 4 0.0000000000000000e+00 1.6560500000000000e+00 1.7014299999999999e+01 1.8169999999999999e+00 0 0 0
3144 444 4 0.0000000000000000e+00 1.6560500000000000e+00 1.8831250000000001e+01 0.0000000000000000e+00 0 0 0
3145 444 4 0.0000000000000000e+00 1.6568600000000000e+00 1.8837879999999998e+01 3.5739800000000002e+00 0 0 0
3011 444 1 4.1499999999999998e-01 1.2110469141692695e+00 1.6710398909947816e+01 6.3625236480961309e+00 -2 -1 0
1695 444 1 4.1499999999999998e-01 4.6485921299343902e-01 1.9203850257964799e+01 6.8336892728793499e+00 1 -3 0
1693 444 2 -8.2999999999999996e-01 4.7822319030536203e-01 2.0091880330788833e+01 7.1907002940396412e+00 1 -3 0
1694 444 1 4.1499999999999998e-01 1.3802331181300116e+00 2.0387031495007829e+01 7.0662151403142435e+00 1 -3 0
818 444 1 4.1499999999999998e-01 1.2906626623019228e+00 1.8763692700078202e+01 1.1519757319540261e+01 2 -1 0
2456 444 1 4.1499999999999998e-01 3.8739353670705695e-01 1.7237285144224117e+01 1.2984021068082388e+01 3 -5 0
2121 444 1 4.1499999999999998e-01 5.7311725996904150e-01 2.0380519573653068e+01 1.2866909901081170e+01 1 1 0
817 444 2 -8.2999999999999996e-01 4.5319764918019717e-01 1.8864671704709068e+01 1.1972181283473089e+01 2 -1 0
2455 444 2 -8.2999999999999996e-01 2.5195002825706081e-01 1.6416196688966600e+01 1.3456992068572943e+01 3 -5 0
222 444 1 4.1499999999999998e-01 1.9658999044448393e+00 1.7048676242101784e+01 1.7355497340196543e+01 4 -3 0
1627 444 2 -8.2999999999999996e-01 1.6312168607401833e+00 1.7685814083137362e+01 1.9652669471945224e+01 4 1 0
2189 444 1 4.1499999999999998e-01 6.5875627408964244e-02 1.6717269487492501e+01 1.9116030889366051e+01 0 2 0
35 444 1 4.1499999999999998e-01 1.6241296215179692e+00 2.0089630499986331e+01 1.8228848277459335e+01 4 0 0
1978 444 2 -8.2999999999999996e-01 1.1533312118973553e+00 2.0028823033328244e+01 1.6167737120885224e+01 2 -5 0
3147 444 4 0.0000000000000000e+00 1.6560500000000000e+00 2.0648199999999999e+01 1.8169999999999999e+00 0 0 0
3165 444 4 0.0000000000000000e+00 1.6558700000000000e+00 2.2464540000000000e+01 3.5790600000000001e+00 0 0 0
3167 444 4 0.0000000000000000e+00 1.6560500000000000e+00 2.4282000000000000e+01 1.8169999999999999e+00 0 0 0
3176 444 4 0.0000000000000000e+00 1.6560500000000000e+00 2.2465050000000002e+01 0.0000000000000000e+00 0 0 0
1376 444 1 4.1499999999999998e-01 3.1754128425396866e-01 2.3260123988709083e+01 6.3363009309704355e+00 -1 -4 0
672 444 1 4.1499999999999998e-01 1.8238051971785216e+00 2.1951064273322988e+01 1.3812740425195916e+01 -1 4 0
2119 444 2 -8.2999999999999996e-01 5.1942180144943662e-01 2.0869084380935483e+01 1.3688283013566249e+01 1 1 0
912 444 1 4.1499999999999998e-01 4.3479139747929657e-01 2.2776555980038754e+01 1.0006745067279859e+01 0 0 0
910 444 2 -8.2999999999999996e-01 7.4899163866486995e-01 2.2479724943803095e+01 1.0860795055162042e+01 0 0 0
911 444 1 4.1499999999999998e-01 1.3874631909744312e-01 2.2866477924653825e+01 1.1488691894608076e+01 0 0 0
1979 444 1 4.1499999999999998e-01 7.5025415130936246e-01 2.0442674969577833e+01 1.5404528571227791e+01 2 -5 0
2070 444 1 4.1499999999999998e-01 1.4677967732008113e+00 2.2485308794579979e+01 1.9326291060883303e+01 1 -1 0
2068 444 2 -8.2999999999999996e-01 9.7174500312345136e-01 2.3251477515778529e+01 1.9614650589227672e+01 1 -1 0
34 444 2 -8.2999999999999996e-01 1.8885782967279063e+00 2.0816465872339805e+01 1.8792771398927680e+01 4 0 0
3182 444 4 0.0000000000000000e+00 1.6560500000000000e+00 2.6098949999999999e+01 0.0000000000000000e+00 0 0 0
3183 444 4 0.0000000000000000e+00 1.6547200000000000e+00 2.6095900000000000e+01 3.5714500000000000e+00 0 0 0
3185 444 4 0.0000000000000000e+00 1.6560500000000000e+00 2.7915800000000001e+01 1.8169999999999999e+00 0 0 0
2627 444 1 4.1499999999999998e-01 1.2934650491549895e+00 2.7101142790562086e+01 6.4106214040828418e+00 2 1 0
267 444 1 4.1499999999999998e-01 2.1945833490095032e-01 2.8238995947153892e+01 7.8449962450065049e+00 -1 -4 0
2414 444 1 4.1499999999999998e-01 1.6779621974649768e+00 2.6554272853579612e+01 1.2054450138747933e+01 2 -7 0
2413 444 2 -8.2999999999999996e-01 1.7358216676845393e+00 2.6589706301118976e+01 1.1099657548070237e+01 2 -7 0
2101 444 2 -8.2999999999999996e-01 1.6982841447149779e+00 2.6443235356199796e+01 1.3934986000814609e+01 4 -1 0
2207 444 1 4.1499999999999998e-01 1.7529336897545547e-01 2.5709774472411798e+01 1.4122789052759252e+01 3 -1 0
2073 444 1 4.1499999999999998e-01 1.7084290871981975e+00 2.5030371260343582e+01 9.6759151598673530e+00 0 1 0
2071 444 2 -8.2999999999999996e-01 1.7794775597390255e+00 2.4630439818901987e+01 8.8091741934939520e+00 0 1 0
2072 444 1 4.1499999999999998e-01 1.4820921973956254e+00 2.5311260601800168e+01 8.2056199613392113e+00 0 1 0
1032 444 1 4.1499999999999998e-01 4.5310652597052505e-02 2.7793721434393181e+01 1.6721216528150038e+01 4 4 0
1030 444 2 -8.2999999999999996e-01 3.4073290173892518e-01 2.7771933650960449e+01 1.7631427522222452e+01 4 4 0
2430 444 1 4.1499999999999998e-01 1.0683249505315786e+00 2.8453176868092381e+01 1.9094726597131469e+01 3 -3 0
3202 444 4 0.0000000000000000e+00 1.6560500000000000e+00 2.9732749999999999e+01 0.0000000000000000e+00 0 0 0
3203 444 4 0.0000000000000000e+00 1.6568600000000000e+00 2.9739380000000001e+01 3.5739800000000002e+00 0 0 0
3205 444 4 0.0000000000000000e+00 1.6560500000000000e+00 3.1549700000000001e+01 1.8169999999999999e+00 0 0 0
964 444 2 -8.2999999999999996e-01 1.7329129892253023e+00 3.1081849872831803e+01 6.6020176543820188e+00 2 -7 0
966 444 1 4.1499999999999998e-01 9.1703048547255661e-01 3.0691867015630304e+01 6.9158344288034908e+00 2 -7 0
965 444 1 4.1499999999999998e-01 1.5721404080067858e+00 3.2025187908385249e+01 6.6243184952854399e+00 2 -7 0
1317 444 1 4.1499999999999998e-01 8.0414616876204670e-01 3.1101645778380739e+01 1.0294090760440129e+01 1 2 0
3015 444 1 4.1499999999999998e-01 9.0241160465490289e-01 3.0805516409278816e+01 1.3785615805186136e+01 1 1 0
2428 444 2 -8.2999999999999996e-01 1.4917135350214787e+00 2.8830426719131072e+01 1.9865866328289570e+01 3 -3 0
790 444 2 -8.2999999999999996e-01 2.3040823853784934e-01 3.1543043682903427e+01 1.8628541883845998e+01 2 -5 0
2695 444 2 -8.2999999999999996e-01 1.8510608786845089e+00 3.0638475986874390e+01 1.6579809095603288e+01 1 1 0
2697 444 1 4.1499999999999998e-01 1.2197250619658628e+00 3.1139886934445734e+01 1.7095788524067864e+01 1 1 0
791 444 1 4.1499999999999998e-01 1.2425443128640697e-01 3.2418625252190282e+01 1.9000456450170677e+01 2 -5 0
3050 444 4 0.0000000000000000e+00 3.4729999999999999e+00 6.6205000000000003e-01 1.8169999999999999e+00 0 0 0
3074 444 4 0.0000000000000000e+00 3.4651500000000000e+00 2.4724400000000002e+00 3.5741600000000000e+00 0 0 0
3075 444 4 0.0000000000000000e+00 3.4729999999999999e+00 2.4790000000000001e+00 0.0000000000000000e+00 0 0 0
154 444 2 -8.2999999999999996e-01 3.8781052982657260e+00 3.0034718189607985e+00 7.1790574036505959e+00 5 0 0
155 444 1 4.1499999999999998e-01 3.2679564175734614e+00 3.6065218999037238e+00 6.7544620123535744e+00 5 0 0
2537 444 1 4.1499999999999998e-01 3.4763186528843613e+00 3.3591484208606230e+00 1.3877760472984830e+01 2 2 0
2912 444 1 4.1499999999999998e-01 3.5822594430103480e+00 6.6813212649978071e-01 1.1662420754927300e+01 0 5 0
1336 444 2 -8.2999999999999996e-01 3.6011929917098562e+00 3.7821414902773531e+00 9.7512681158599346e+00 -3 -3 0
2536 444 2 -8.2999999999999996e-01 2.6998853875091662e+00 2.8331623971821212e+00 1.3686130763580199e+01 2 2 0
1337 444 1 4.1499999999999998e-01 3.9648159784061292e+00 2.9056544538118256e+00 9.8768891242574526e+00 -3 -3 0
2651 444 1 4.1499999999999998e-01 2.9647307912897816e+00 1.1601048330976549e+00 1.4486184362746080e+01 0 1 0
2650 444 2 -8.2999999999999996e-01 3.4765890381578650e+00 3.6110593894869469e-01 1.4612018922799832e+01 0 1 0
2057 444 1 4.1499999999999998e-01 3.5297372319279305e+00 2.2857198418061460e+00 1.7215045539675081e+01 4 5 0
2056 444 2 -8.2999999999999996e-01 3.0494931253126492e+00 2.1287342797513227e+00 1.8028035647049766e+01 4 5 0
1160 444 1 4.1499999999999998e-01 3.2950644825688249e+00 3.5200908581987400e-01 1.8446315732571627e+01 0 2 0
2058 444 1 4.1499999999999998e-01 2.5533579569391684e+00 2.9343659018763062e+00 1.8173083362892609e+01 4 5 0
3064 444 4 0.0000000000000000e+00 3.4729999999999999e+00 6.1128000000000000e+00 0.0000000000000000e+00 0 0 0
3065 444 4 0.0000000000000000e+00 3.4660899999999999e+00 6.1145699999999996e+00 3.5676700000000001e+00 0 0 0
3068 444 4 0.0000000000000000e+00 3.4729999999999999e+00 4.2959500000000004e+00 1.8169999999999999e+00 0 0 0
3088 444 4 0.0000000000000000e+00 3.4729999999999999e+00 7.9297500000000003e+00 1.8169999999999999e+00 0 0 0
1969 444 2 -8.2999999999999996e-01 2.7806657951984830e+00 5.5080895228976363e+00 6.3256804117704046e+00 -2 -3 0
1970 444 1 4.1499999999999998e-01 2.5076832407189191e+00 6.4127170049650637e+00 6.4785250813176010e+00 -2 -3 0
1971 444 1 4.1499999999999998e-01 3.7371939166815413e+00 5.5436182169277073e+00 6.3208358397780176e+00 -2 -3 0
1565 444 1 4.1499999999999998e-01 2.7874032308721186e+00 7.3512627352360305e+00 1.3892595819201777e+01 -3 3 0
1564 444 2 -8.2999999999999996e-01 3.2051851556495192e+00 6.6724868014807646e+00 1.3362545533834547e+01 -3 3 0
1145 444 1 4.1499999999999998e-01 3.7990042247753313e+00 7.3005955211480025e+00 1.0557603018632882e+01 1 4 0
152 444 1 4.1499999999999998e-01 3.8763001077084964e+00 5.3398780310281948e+00 1.5725315957268815e+01 3 -4 0
1566 444 1 4.1499999999999998e-01 2.9385657055916643e+00 5.8497108409654848e+00 1.3772650027752496e+01 -3 3 0
1146 444 1 4.1499999999999998e-01 4.0550782405781014e+00 6.7989700078889408e+00 1.1962840765313365e+01 1 4 0
1294 444 2 -8.2999999999999996e-01 2.0774464653290017e+00 7.5175458718184904e+00 1.0137046229029256e+01 1 0 0
151 444 2 -8.2999999999999996e-01 3.6222254372190954e+00 5.4934019285095825e+00 1.6635320652085746e+01 3 -4 0
2546 444 1 4.1499999999999998e-01 2.2567089158189093e+00 5.2036038731318683e+00 1.8143928219882902e+01 -2 0 0
3084 444 4 0.0000000000000000e+00 3.4729999999999999e+00 9.7467000000000006e+00 0.0000000000000000e+00 0 0 0
3085 444 4 0.0000000000000000e+00 3.4686400000000002e+00 9.7501599999999993e+00 3.5758899999999998e+00 0 0 0
3108 444 4 0.0000000000000000e+00 3.4729999999999999e+00 1.1563549999999999e+01 1.8169999999999999e+00 0 0 0
1089 444 1 4.1499999999999998e-01 3.2358074596539761e+00 8.6340407817098548e+00 6.8573613115430971e+00 -3 0 0
1087 444 2 -8.2999999999999996e-01 2.3686149544478003e+00 8.2288623914945394e+00 6.8509717841767257e+00 -3 0 0
1530 444 1 4.1499999999999998e-01 2.1682073262797048e+00 1.0240477362189935e+01 1.1282257692564203e+01 1 -1 0
1486 444 2 -8.2999999999999996e-01 3.2156725822859498e+00 9.8458577154664031e+00 9.1463605366839555e+00 3 1 0
206 444 1 4.1499999999999998e-01 2.2373162977846364e+00 1.1897124348329921e+01 1.2976547088622274e+01 -5 -3 0
1487 444 1 4.1499999999999998e-01 2.8318224763114697e+00 9.0347223494468025e+00 9.4794541681264146e+00 3 1 0
1528 444 2 -8.2999999999999996e-01 2.5482430222141437e+00 1.0679535279614713e+01 1.2043199807730701e+01 1 -1 0
731 444 1 4.1499999999999998e-01 4.0749035067671917e+00 1.1605037525268566e+01 1.1048338983207412e+01 3 0 0
339 444 1 4.1499999999999998e-01 2.6869150257096295e+00 8.9472948110871702e+00 1.5301809352561357e+01 -2 -2 0
1529 444 1 4.1499999999999998e-01 2.5415239441900064e+00 1.0014852794809487e+01 1.2731955500541929e+01 1 -1 0
1488 444 1 4.1499999999999998e-01 3.5344955671295470e+00 9.6194094657319020e+00 8.2726870648034474e+00 3 1 0
337 444 2 -8.2999999999999996e-01 2.1156702429186702e+00 9.3657270287274219e+00 1.4657739448660292e+01 -2 -2 0
2514 444 1 4.1499999999999998e-01 2.2648890637181469e+00 1.1457778790587751e+01 9.2508080623904494e+00 0 -1 0
508 444 2 -8.2999999999999996e-01 2.3682132594667591e+00 9.2321988932042114e+00 1.9306668648079892e+01 0 -7 0
2503 444 2 -8.2999999999999996e-01 3.8825553156331520e+00 9.6331051951012174e+00 1.7263129399775067e+01 1 1 0
509 444 1 4.1499999999999998e-01 2.7809049554357581e+00 8.4909969517021722e+00 1.9749993613209398e+01 0 -7 0
510 444 1 4.1499999999999998e-01 2.8697072395955838e+00 9.3378034133703949e+00 1.8498223648030013e+01 0 -7 0
3126 444 4 0.0000000000000000e+00 3.4729999999999999e+00 1.5197450000000000e+01 1.8169999999999999e+00 0 0 0
3132 444 4 0.0000000000000000e+00 3.4651500000000000e+00 1.3373939999999999e+01 3.5741700000000001e+00 0 0 0
3133 444 4 0.0000000000000000e+00 3.4729999999999999e+00 1.3380500000000000e+01 0.0000000000000000e+00 0 0 0
1506 444 1 4.1499999999999998e-01 2.1281371017905069e+00 1.3638966539550273e+01 6.5693599183849978e+00 5 0 0
1098 444 1 4.1499999999999998e-01 3.9142835061268979e+00 1.5005712028441156e+01 6.5499585761955474e+00 0 -3 0
1096 444 2 -8.2999999999999996e-01 3.9596991275399027e+00 1.4107811013382740e+01 6.8785058477948500e+00 0 -3 0
1097 444 1 4.1499999999999998e-01 4.0516151411154215e+00 1.4203488844243221e+01 7.8264668788554488e+00 0 -3 0
207 444 1 4.1499999999999998e-01 3.0735687077212468e+00 1.2598728325851974e+01 1.4025512750105165e+01 -5 -3 0
366 444 1 4.1499999999999998e-01 3.5014544417117084e+00 1.4862878739058333e+01 9.7679701233003939e+00 0 -2 0
610 444 2 -8.2999999999999996e-01 2.4620367124302378e+00 1.4733767284907662e+01 1.2151833348418082e+01 0 -1 0
2498 444 1 4.1499999999999998e-01 3.5891430589076876e+00 1.6000566048660957e+01 1.2429835434771423e+01 4 -1 0
205 444 2 -8.2999999999999996e-01 2.1911456495491004e+00 1.2570034831452972e+01 1.3655731623103554e+01 -5 -3 0
611 444 1 4.1499999999999998e-01 2.2850137253653489e+00 1.4176919413116778e+01 1.2909999721179917e+01 0 -1 0
2981 444 1 4.1499999999999998e-01 2.9063891762463410e+00 1.4616697472767905e+01 1.9728097663085784e+01 2 1 0
221 444 1 4.1499999999999998e-01 3.0027024379454188e+00 1.5945534040430479e+01 1.7351876883322788e+01 4 -3 0
3122 444 4 0.0000000000000000e+00 3.4729999999999999e+00 1.7014299999999999e+01 0.0000000000000000e+00 0 0 0
3123 444 4 0.0000000000000000e+00 3.4660899999999999e+00 1.7016069999999999e+01 3.5676700000000001e+00 0 0 0
3146 444 4 0.0000000000000000e+00 3.4729999999999999e+00 1.8831250000000001e+01 1.8169999999999999e+00 0 0 0
2311 444 2 -8.2999999999999996e-01 3.9217839750108991e+00 1.7846053730798072e+01 6.5940799030303836e+00 -3 4 0
2312 444 1 4.1499999999999998e-01 3.4669209451715046e+00 1.8600151900700670e+01 6.2190225793901526e+00 -3 4 0
3012 444 1 4.1499999999999998e-01 2.6561314592711258e+00 1.6683333782125068e+01 6.8129600654559423e+00 -2 -1 0
1433 444 1 4.1499999999999998e-01 2.6871685541592849e+00 1.9625516494686533e+01 9.9266034807360075e+00 0 2 0
1776 444 1 4.1499999999999998e-01 2.3631220899286505e+00 1.7556900056584645e+01 1.0116673485659422e+01 -2 0 0
1775 444 1 4.1499999999999998e-01 3.5736126955274843e+00 1.7502497404796053e+01 1.1024224096646899e+01 -2 0 0
1774 444 2 -8.2999999999999996e-01 2.8801139908466045e+00 1.8088805625077367e+01 1.0721676506365313e+01 -2 0 0
2007 444 1 4.1499999999999998e-01 3.3328259994153213e+00 1.8690743058912577e+01 1.5270631960139820e+01 -2 3 0
2005 444 2 -8.2999999999999996e-01 3.2649920916203672e+00 1.7810007650169876e+01 1.4901937003863258e+01 -2 3 0
2499 444 1 4.1499999999999998e-01 3.8544483371006395e+00 1.7320860315658560e+01 1.3121450831456684e+01 4 -1 0
2006 444 1 4.1499999999999998e-01 2.8695177918981649e+00 1.7287547006337643e+01 1.5599696998771140e+01 -2 3 0
1980 444 1 4.1499999999999998e-01 2.0940982009540696e+00 2.0076364243753577e+01 1.5997651506797853e+01 2 -5 0
220 444 2 -8.2999999999999996e-01 2.3886575403953652e+00 1.6409088302591591e+01 1.6782404450045295e+01 4 -3 0
1628 444 1 4.1499999999999998e-01 2.4997379799494110e+00 1.7470556218985781e+01 1.9992620835305434e+01 4 1 0
36 444 1 4.1499999999999998e-01 2.5363024957062987e+00 2.0436386981495357e+01 1.9386257433450194e+01 4 0 0
3142 444 4 0.0000000000000000e+00 3.4729999999999999e+00 2.0648199999999999e+01 0.0000000000000000e+00 0 0 0
3143 444 4 0.0000000000000000e+00 3.4686400000000002e+00 2.0651660000000000e+01 3.5758899999999998e+00 0 0 0
3166 444 4 0.0000000000000000e+00 3.4729999999999999e+00 2.2465050000000002e+01 1.8169999999999999e+00 0 0 0
3190 444 4 0.0000000000000000e+00 3.4651500000000000e+00 2.4275440000000000e+01 3.5741700000000001e+00 0 0 0
3191 444 4 0.0000000000000000e+00 3.4729999999999999e+00 2.4282000000000000e+01 0.0000000000000000e+00 0 0 0
3017 444 1 4.1499999999999998e-01 2.8528008336137112e+00 2.3426565398611171e+01 6.3171177095303301e+00 4 4 0
1938 444 1 4.1499999999999998e-01 3.2569898533843120e+00 2.0607872508238955e+01 7.8282252869032956e+00 -2 3 0
1937 444 1 4.1499999999999998e-01 2.7001141834512143e+00 2.1497036446114631e+01 6.7368169878007711e+00 -2 3 0
3016 444 2 -8.2999999999999996e-01 2.1145880304078890e+00 2.3073851641918711e+01 6.8139745652078298e+00 4 4 0
1936 444 2 -8.2999999999999996e-01 3.0612257020498483e+00 2.0624147727543221e+01 6.8913991050776948e+00 -2 3 0
3018 444 1 4.1499999999999998e-01 2.0978569952725117e+00 2.3591519791313619e+01 7.6189414295368545e+00 4 4 0
670 444 2 -8.2999999999999996e-01 2.4805370196715248e+00 2.2553195148053064e+01 1.3462921121438779e+01 -1 4 0
1664 444 1 4.1499999999999998e-01 3.0137902496783768e+00 2.3745017523067251e+01 1.0005276011130366e+01 1 1 0
1665 444 1 4.1499999999999998e-01 3.2847625448769242e+00 2.2255879603441333e+01 1.0035894349677321e+01 1 1 0
671 444 1 4.1499999999999998e-01 2.2396153690687384e+00 2.2663066097958218e+01 1.2543074958991964e+01 -1 4 0
1432 444 2 -8.2999999999999996e-01 2.8334932905718611e+00 2.0539008832998459e+01 9.6809334063494124e+00 0 2 0
1663 444 2 -8.2999999999999996e-01 3.5664845140527639e+00 2.3084644637596558e+01 1.0423209967412488e+01 1 1 0
2591 444 1 4.1499999999999998e-01 3.4075837292431999e+00 2.3958034490875054e+01 1.3991281315869738e+01 4 2 0
1434 444 1 4.1499999999999998e-01 2.1928602734058940e+00 2.1031171500783984e+01 1.0194350976710483e+01 0 2 0
2621 444 1 4.1499999999999998e-01 3.6208441180444253e+00 2.2895961273296741e+01 1.9358212108381981e+01 3 -2 0
3180 444 4 0.0000000000000000e+00 3.4729999999999999e+00 2.7915800000000001e+01 0.0000000000000000e+00 0 0 0
3181 444 4 0.0000000000000000e+00 3.4660899999999999e+00 2.7917570000000001e+01 3.5676700000000001e+00 0 0 0
3184 444 4 0.0000000000000000e+00 3.4729999999999999e+00 2.6098949999999999e+01 1.8169999999999999e+00 0 0 0
2628 444 1 4.1499999999999998e-01 2.7195015217009102e+00 2.7519741782703509e+01 6.6988747738405729e+00 2 1 0
1128 444 1 4.1499999999999998e-01 3.2499817020230588e+00 2.5472335972808175e+01 6.6625770444491934e+00 3 -1 0
2626 444 2 -8.2999999999999996e-01 2.1339177860610099e+00 2.6762842206137339e+01 6.7195287608882639e+00 2 1 0
1126 444 2 -8.2999999999999996e-01 4.0166280022535501e+00 2.4901817538043574e+01 6.7172948481199173e+00 3 -1 0
2590 444 2 -8.2999999999999996e-01 3.7765721103614727e+00 2.4828535530182652e+01 1.4140642410465366e+01 4 2 0
2103 444 1 4.1499999999999998e-01 2.4258363467808191e+00 2.5823774714389980e+01 1.3878699643393498e+01 4 -1 0
1454 444 1 4.1499999999999998e-01 3.4530630129908060e+00 2.8157758146609531e+01 1.5663770880450251e+01 0 0 0
1453 444 2 -8.2999999999999996e-01 2.7788945248383787e+00 2.8523216107398369e+01 1.5090910433975159e+01 0 0 0
2415 444 1 4.1499999999999998e-01 2.3240589483693403e+00 2.7323620055415784e+01 1.0921948477720154e+01 2 -7 0
2851 444 2 -8.2999999999999996e-01 3.2450232646132369e+00 2.8536959998514160e+01 1.0056916639902008e+01 4 0 0
2102 444 1 4.1499999999999998e-01 2.1077389927571004e+00 2.7272566320872961e+01 1.4181539700477053e+01 4 -1 0
1074 444 1 4.1499999999999998e-01 2.8484221752435275e+00 2.5671101812282437e+01 1.8624793873047590e+01 -3 0 0
1073 444 1 4.1499999999999998e-01 3.4620680920742717e+00 2.5961298790609753e+01 1.9977982568294522e+01 -3 0 0
1072 444 2 -8.2999999999999996e-01 2.9818323172364729e+00 2.6374322884372361e+01 1.9260335929975223e+01 -3 0 0
2438 444 1 4.1499999999999998e-01 3.7519723815198081e+00 2.7905588156055405e+01 1.8581197455959934e+01 0 0 0
3200 444 4 0.0000000000000000e+00 3.4729999999999999e+00 3.1549700000000001e+01 0.0000000000000000e+00 0 0 0
3201 444 4 0.0000000000000000e+00 3.4686400000000002e+00 3.1553159999999998e+01 3.5758899999999998e+00 0 0 0
3204 444 4 0.0000000000000000e+00 3.4729999999999999e+00 2.9732749999999999e+01 1.8169999999999999e+00 0 0 0
1557 444 1 4.1499999999999998e-01 3.2070452704661943e+00 3.1726698070342572e+01 7.0368625897858097e+00 0 -8 0
1555 444 2 -8.2999999999999996e-01 3.9684916195686029e+00 3.1847344585893268e+01 7.6042043626385984e+00 0 -8 0
1366 444 2 -8.2999999999999996e-01 3.5790385641965359e+00 2.8934543849307367e+01 6.5057372936616087e+00 -6 -2 0
1368 444 1 4.1499999999999998e-01 2.9863752428478856e+00 2.9683633491998322e+01 6.5677644405043454e+00 -6 -2 0
1932 444 1 4.1499999999999998e-01 3.1872649093593224e+00 3.1552659618590443e+01 9.3009355592086642e+00 5 -2 0
1455 444 1 4.1499999999999998e-01 2.2674637061248357e+00 2.9099155318824952e+01 1.5659209996732933e+01 0 0 0
1930 444 2 -8.2999999999999996e-01 2.6104213281937532e+00 3.1313716824352561e+01 1.0026463135055645e+01 5 -2 0
2410 444 2 -8.2999999999999996e-01 2.8360911812317200e+00 3.0529277362507866e+01 1.3459254274468607e+01 -1 -1 0
2411 444 1 4.1499999999999998e-01 3.7138847049503858e+00 3.0166967052715862e+01 1.3339080980738286e+01 -1 -1 0
2412 444 1 4.1499999999999998e-01 2.3344816038079217e+00 2.9816675751558520e+01 1.3855257577228731e+01 -1 -1 0
2652 444 1 4.1499999999999998e-01 2.9350014445060930e+00 3.2371873508417636e+01 1.4235654249058751e+01 0 0 0
1931 444 1 4.1499999999999998e-01 3.1455311915032453e+00 3.1439771140201316e+01 1.0810044544728205e+01 5 -2 0
2853 444 1 4.1499999999999998e-01 2.7442483835521974e+00 2.9351989820890498e+01 1.0022521014541848e+01 4 0 0
2852 444 1 4.1499999999999998e-01 3.9120866195802311e+00 2.8636305507349874e+01 9.3776605002491031e+00 4 0 0
2429 444 1 4.1499999999999998e-01 2.4285019890841610e+00 2.8771290083957695e+01 1.9678350887609717e+01 3 -3 0
1161 444 1 4.1499999999999998e-01 3.2751475783784683e+00 3.1607169446881823e+01 1.8883252199651761e+01 0 1 0
2696 444 1 4.1499999999999998e-01 2.6905072293010202e+00 3.1068007216662217e+01 1.6744323073195854e+01 1 1 0
1159 444 2 -8.2999999999999996e-01 3.6745166109681997e+00 3.2200592059750640e+01 1.8247181577387284e+01 0 1 0
2437 444 2 -8.2999999999999996e-01 3.9497524853355110e+00 2.8820003037120337e+01 1.8783586538308182e+01 0 0 0
3054 444 4 0.0000000000000000e+00 5.2898399999999999e+00 6.6205000000000003e-01 0.0000000000000000e+00 0 0 0
3055 444 4 0.0000000000000000e+00 5.2846000000000002e+00 6.6110999999999998e-01 3.5716700000000001e+00 0 0 0
3057 444 4 0.0000000000000000e+00 5.2898399999999999e+00 2.4790000000000001e+00 1.8169999999999999e+00 0 0 0