LAMMPS data file via write_data, version 11 Aug 2017, timestep = 1000000

3567 atoms
14 atom types
2024 bonds
5 bond types
1018 angles
5 angle types
12 dihedrals
4 dihedral types
9 impropers
1 improper types

0.0000000000000000e+00 3.2704500000000003e+01 xlo xhi
0.0000000000000000e+00 3.2704500000000003e+01 ylo yhi
0.0000000000000000e+00 8.0000000000000000e+01 zlo zhi

Masses

1 1.0079
2 15.9994
3 39.0983
4 63.546
5 12.011
6 15.9994
7 1.0079
8 12.011
9 1.0079
10 12.011
11 15.9994
12 15.9994
13 15.9994
14 1.0079

Bond Coeffs # harmonic

1 450 0.9572
2 570 1.229
3 450 1.364
4 570 1.229
5 553 0.945

Angle Coeffs # harmonic

1 100 123.32
2 85 124
3 55 104.52
4 35 113
5 100 123.32

Dihedral Coeffs # charmm

1 0.922 1 180 0
2 3.741 2 0 0
3 0.922 1 0 0
4 3.741 2 180 0

Improper Coeffs # umbrella

1 21 0

Atoms # full

3037 444 4 0.0000000000000000e+00 1.6729300000000000e+00 6.6310000000000002e-01 3.5998700000000001e+00 0 0 0
3039 444 4 0.0000000000000000e+00 1.6560500000000000e+00 2.4790000000000001e+00 1.8169999999999999e+00 0 0 0
3048 444 4 0.0000000000000000e+00 1.6560500000000000e+00 6.6205000000000003e-01 0.0000000000000000e+00 0 0 0
1157 444 1 4.1499999999999998e-01 1.7667708278086662e-03 4.0586407260589175e+00 6.1032047305703214e+00 0 -3 0
923 444 1 4.1499999999999998e-01 4.5316678532484855e-01 8.5492759385579142e-01 7.0739887058103506e+00 -4 1 0
100 444 2 -8.2999999999999996e-01 1.9825879327720004e+00 1.8403774989855937e+00 6.7588567146474059e+00 -3 -4 0
101 444 1 4.1499999999999998e-01 1.5992963481284550e+00 2.4155426685168759e+00 6.0966598252346493e+00 -3 -4 0
1469 444 1 4.1499999999999998e-01 1.1877905112117180e+00 2.6640655128655450e+00 1.5805824623260401e+01 7 -1 0
2675 444 1 4.1499999999999998e-01 2.4947220428629874e-01 3.2353188908834114e+00 1.2718084750528863e+01 4 3 0
76 444 2 -8.2999999999999996e-01 1.6403809755944387e+00 3.1731146344919448e+00 1.3937384513663110e+01 -2 2 0
2579 444 1 4.1499999999999998e-01 1.0368573365927256e+00 3.6212728486864907e+00 1.0485090658183180e+01 0 -3 0
2578 444 2 -8.2999999999999996e-01 1.9049763804148139e+00 3.9703260367654978e+00 1.0283191747943844e+01 0 -3 0
1468 444 2 -8.2999999999999996e-01 8.2042976061295392e-01 2.0637279857120410e+00 1.6454572221205389e+01 7 -1 0
1470 444 1 4.1499999999999998e-01 1.1701309663641550e+00 1.2060608320738095e+00 1.6213017293612499e+01 7 -1 0
3054 444 4 0.0000000000000000e+00 1.6560500000000000e+00 4.2959500000000004e+00 0.0000000000000000e+00 0 0 0
3055 444 4 0.0000000000000000e+00 1.6572600000000000e+00 4.2998900000000004e+00 3.5711200000000001e+00 0 0 0
3057 444 4 0.0000000000000000e+00 1.6560500000000000e+00 6.1128000000000000e+00 1.8169999999999999e+00 0 0 0
3074 444 4 0.0000000000000000e+00 1.6560500000000000e+00 7.9297500000000003e+00 0.0000000000000000e+00 0 0 0
3075 444 4 0.0000000000000000e+00 1.6818000000000000e+00 7.9511500000000002e+00 3.5834700000000002e+00 0 0 0
2919 444 1 4.1499999999999998e-01 1.6557465233142616e+00 7.8560531962725344e+00 7.6639578898977669e+00 -3 0 0
2671 444 2 -8.2999999999999996e-01 1.0334983351939859e+00 6.4097782723046333e+00 1.0379136669232189e+01 1 2 0
1445 444 1 4.1499999999999998e-01 1.7466408646114431e+00 5.8898009222851915e+00 1.5245671438397475e+01 0 4 0
2672 444 1 4.1499999999999998e-01 1.3998654117152172e+00 5.5293676865453802e+00 1.0296165193024981e+01 1 2 0
2673 444 1 4.1499999999999998e-01 1.6413306816434863e+00 6.9692055094574172e+00 9.8955946135641160e+00 1 2 0
671 444 1 4.1499999999999998e-01 9.5234604546302115e-01 7.3222297573882500e+00 1.3579918115232998e+01 0 -3 0
931 444 2 -8.2999999999999996e-01 2.4624913256111111e-01 5.9341995839322985e+00 1.6057919142042312e+01 2 -3 0
591 444 1 4.1499999999999998e-01 1.2722457621256582e+00 6.0245718661594063e+00 1.7735224920880000e+01 2 2 0
1848 444 1 4.1499999999999998e-01 1.6222610302458464e+00 7.2255785473199321e+00 1.9964025856118401e+01 -8 -3 0
589 444 2 -8.2999999999999996e-01 1.8471545640377669e+00 6.2601441618863847e+00 1.8463385544452262e+01 2 2 0
3077 444 4 0.0000000000000000e+00 1.6560500000000000e+00 9.7467000000000006e+00 1.8169999999999999e+00 0 0 0
3096 444 4 0.0000000000000000e+00 1.6729300000000000e+00 1.1564600000000000e+01 3.5998700000000001e+00 0 0 0
3107 444 4 0.0000000000000000e+00 1.6560500000000000e+00 1.1563549999999999e+01 0.0000000000000000e+00 0 0 0
2893 444 2 -8.2999999999999996e-01 3.7019150461615430e-01 9.1101774311227537e+00 6.2816890088767305e+00 0 -2 0
2895 444 1 4.1499999999999998e-01 1.1623866686262732e+00 9.6003869126032413e+00 6.5015832284363961e+00 0 -2 0
209 444 1 4.1499999999999998e-01 1.0031275912522994e+00 1.2057409336396029e+01 6.6928951344503789e+00 0 -5 0
3025 444 13 -7.8000000000000003e-01 1.3158901238991894e+00 1.2019068259610606e+01 1.5049100750709377e+01 0 3 0
994 444 2 -8.2999999999999996e-01 2.9259277196145483e-01 1.1650594270544806e+01 1.1362808876790522e+01 0 -3 0
1455 444 1 4.1499999999999998e-01 3.5974455281668705e-02 9.9355410483199709e+00 8.9174016003888532e+00 -3 0 0
670 444 2 -8.2999999999999996e-01 8.8379716530532859e-01 8.2756332184437813e+00 1.3630463878874584e+01 0 -3 0
2108 444 1 4.1499999999999998e-01 1.8742613490073199e+00 1.2166392319221295e+01 1.1418181944142539e+01 -4 -4 0
1454 444 1 4.1499999999999998e-01 7.4752543415253792e-01 1.0291591061431367e+01 1.0205353153968904e+01 -3 0 0
1453 444 2 -8.2999999999999996e-01 8.5439278994553292e-01 9.7956062615979587e+00 9.3936809786415427e+00 -3 0 0
3026 444 14 3.5999999999999999e-01 5.3994506825008559e-01 1.1647530454653719e+01 1.4555014458163036e+01 0 3 0
672 444 1 4.1499999999999998e-01 1.7193818208267047e+00 8.5568933401846916e+00 1.4003188018701692e+01 0 -3 0
210 444 1 4.1499999999999998e-01 1.0634998628068340e+00 1.1996842770967845e+01 8.2043785435252694e+00 0 -5 0
616 444 2 -8.2999999999999996e-01 5.1634747343091425e-01 9.8648774164345934e+00 1.7484426246591838e+01 -4 2 0
617 444 1 4.1499999999999998e-01 1.3925223752140266e+00 9.8001146001981940e+00 1.7864367367901675e+01 -4 2 0
618 444 1 4.1499999999999998e-01 4.8693526906056256e-01 1.0739558326661324e+01 1.7096738831774804e+01 -4 2 0
3098 444 4 0.0000000000000000e+00 1.6560500000000000e+00 1.3380500000000000e+01 1.8169999999999999e+00 0 0 0
3113 444 4 0.0000000000000000e+00 1.6560500000000000e+00 1.5197450000000000e+01 0.0000000000000000e+00 0 0 0
3114 444 4 0.0000000000000000e+00 1.6572600000000000e+00 1.5201390000000000e+01 3.5711200000000001e+00 0 0 0
208 444 2 -8.2999999999999996e-01 5.5705659255291951e-01 1.2366790968824505e+01 7.4812703778298042e+00 0 -5 0
997 444 2 -8.2999999999999996e-01 7.1562627510009802e-01 1.4818423933587344e+01 6.4288508285821448e+00 -4 -3 0
998 444 1 4.1499999999999998e-01 5.9226758606805419e-01 1.3980953521333253e+01 6.8756834706432448e+00 -4 -3 0
1630 444 2 -8.2999999999999996e-01 1.8121071821660095e+00 1.5207758635100639e+01 1.1198636402515488e+01 3 1 0
2694 444 1 4.1499999999999998e-01 5.5442743584133300e-02 1.5708141472899323e+01 1.1252289526325590e+01 6 -3 0
3023 444 11 -8.5999999999999999e-01 4.0250174203316741e-01 1.2412733732326648e+01 1.7010551262574982e+01 0 3 0
3024 444 12 -8.0000000000000004e-01 1.4889127228592880e+00 1.3985200221227316e+01 1.6105853461120386e+01 0 3 0
2334 444 1 4.1499999999999998e-01 1.2192590598444413e+00 1.3234890337202403e+01 1.8463362032716145e+01 -2 -1 0
2332 444 2 -8.2999999999999996e-01 1.4835130669821464e+00 1.3393466128156396e+01 1.9369593480858100e+01 -2 -1 0
2138 444 1 4.1499999999999998e-01 1.3393454679342447e+00 1.5760126193814845e+01 1.6245489418552648e+01 5 3 0
3022 444 10 1.0800000000000001e+00 9.6486435065140175e-01 1.2842441058595739e+01 1.6028175322487471e+01 0 3 0
3116 444 4 0.0000000000000000e+00 1.6560500000000000e+00 1.7014299999999999e+01 1.8169999999999999e+00 0 0 0
3133 444 4 0.0000000000000000e+00 1.6560500000000000e+00 1.8831250000000001e+01 0.0000000000000000e+00 0 0 0
3134 444 4 0.0000000000000000e+00 1.6818000000000000e+00 1.8852650000000001e+01 3.5834700000000002e+00 0 0 0
700 444 2 -8.2999999999999996e-01 5.1935678892057158e-01 1.9850222048775013e+01 6.3817400451295372e+00 -3 -2 0
701 444 1 4.1499999999999998e-01 1.3803128035245369e+00 2.0268466720571766e+01 6.3741244501341665e+00 -3 -2 0
1496 444 1 4.1499999999999998e-01 1.9295495562663647e+00 1.6609098671457950e+01 6.3418578076897010e+00 -1 7 0
1497 444 1 4.1499999999999998e-01 1.6553758861945753e+00 1.7884544373855565e+01 7.1099478444884685e+00 -1 7 0
1994 444 1 4.1499999999999998e-01 1.7714802821005264e+00 2.0252702414091917e+01 1.5678416732813165e+01 2 1 0
1896 444 1 4.1499999999999998e-01 1.4826096096855006e+00 1.8147093737692693e+01 1.5393853064642451e+01 6 -6 0
1372 444 2 -8.2999999999999996e-01 1.3123030161093889e+00 1.9465613723849444e+01 1.1299913978449572e+01 5 -1 0
1894 444 2 -8.2999999999999996e-01 1.6419995108269940e+00 1.8817916235863290e+01 1.4729907322593073e+01 6 -6 0
1374 444 1 4.1499999999999998e-01 5.2125310268041058e-01 1.9179974976452591e+01 1.0842877405943391e+01 5 -1 0
1373 444 1 4.1499999999999998e-01 1.6542023658819629e+00 1.8670098094297224e+01 1.1707947803413312e+01 5 -1 0
1895 444 1 4.1499999999999998e-01 1.5562865570065176e+00 1.8355543163293468e+01 1.3896182935085253e+01 6 -6 0
2137 444 2 -8.2999999999999996e-01 1.1102315929866262e+00 1.6688784929572481e+01 1.6208997306654023e+01 5 3 0
858 444 1 4.1499999999999998e-01 6.8039882973398902e-01 1.7203122657250603e+01 1.8976507859625126e+01 -2 -1 0
2139 444 1 4.1499999999999998e-01 1.5416586847368857e-01 1.6698481721884271e+01 1.6163431731384833e+01 5 3 0
856 444 2 -8.2999999999999996e-01 6.5090738401326176e-01 1.7653695373930745e+01 1.9820514034712399e+01 -2 -1 0
3136 444 4 0.0000000000000000e+00 1.6560500000000000e+00 2.0648199999999999e+01 1.8169999999999999e+00 0 0 0
3155 444 4 0.0000000000000000e+00 1.6729300000000000e+00 2.2466100000000001e+01 3.5998700000000001e+00 0 0 0
3157 444 4 0.0000000000000000e+00 1.6560500000000000e+00 2.4282000000000000e+01 1.8169999999999999e+00 0 0 0
3166 444 4 0.0000000000000000e+00 1.6560500000000000e+00 2.2465050000000002e+01 0.0000000000000000e+00 0 0 0
2926 444 2 -8.2999999999999996e-01 1.3215926993577258e+00 2.3068230415005512e+01 6.7706364123834417e+00 -7 -1 0
2928 444 1 4.1499999999999998e-01 5.8665880590708952e-01 2.2747446206342801e+01 7.2933237372962028e+00 -7 -1 0
2927 444 1 4.1499999999999998e-01 1.8751824789051357e+00 2.2298815336224848e+01 6.6373264431217125e+00 -7 -1 0
842 444 1 4.1499999999999998e-01 6.3746369164191574e-01 2.0743206345893984e+01 1.2594657005907935e+01 4 -4 0
500 444 1 4.1499999999999998e-01 2.6124695826327876e-01 2.3498835134611365e+01 9.6222689483256705e+00 -1 -5 0
1558 444 2 -8.2999999999999996e-01 1.8493482146128104e+00 2.2840248732600251e+01 9.7559709907832310e+00 4 -3 0
496 444 2 -8.2999999999999996e-01 6.9755636750996919e-01 2.3541312449470272e+01 1.2792772195283185e+01 6 4 0
498 444 1 4.1499999999999998e-01 1.2500191229383564e+00 2.3154894952739788e+01 1.2113288223568970e+01 6 4 0
497 444 1 4.1499999999999998e-01 1.3136332649513980e+00 2.3962090074525339e+01 1.3392461671579992e+01 6 4 0
1509 444 1 4.1499999999999998e-01 4.9158915767822869e-01 2.1255115201742875e+01 1.7217173064242289e+01 3 -4 0
944 444 1 4.1499999999999998e-01 7.0083500694231318e-02 2.3281189732332869e+01 1.7774580884994585e+01 4 -4 0
943 444 2 -8.2999999999999996e-01 2.2684024507170608e-01 2.4221979752466009e+01 1.7855657198392223e+01 4 -4 0
3172 444 4 0.0000000000000000e+00 1.6560500000000000e+00 2.6098949999999999e+01 0.0000000000000000e+00 0 0 0
3173 444 4 0.0000000000000000e+00 1.6572600000000000e+00 2.6102889999999999e+01 3.5711200000000001e+00 0 0 0
3175 444 4 0.0000000000000000e+00 1.6560500000000000e+00 2.7915800000000001e+01 1.8169999999999999e+00 0 0 0
217 444 2 -8.2999999999999996e-01 1.5759235589964931e+00 2.5753382958882725e+01 7.1261451460471728e+00 1 -2 0
218 444 1 4.1499999999999998e-01 1.5491617065438084e+00 2.4825587961507487e+01 6.8922377356415785e+00 1 -2 0
1860 444 1 4.1499999999999998e-01 1.8475802345073422e+00 2.7182917771012232e+01 1.4306797600846741e+01 1 -2 0
1168 444 2 -8.2999999999999996e-01 3.0805740847838553e-01 2.6979791639867724e+01 8.9121405992964551e+00 1 -3 0
2006 444 1 4.1499999999999998e-01 5.7875583731412961e-01 2.5832575047722095e+01 1.5669223390445225e+01 -4 -2 0
1858 444 2 -8.2999999999999996e-01 1.2835032894518665e+00 2.7354745424512839e+01 1.5060803405132097e+01 1 -2 0
229 444 2 -8.2999999999999996e-01 2.1255454630570686e-01 2.5747745566368046e+01 1.1344154433989415e+01 4 4 0
1169 444 1 4.1499999999999998e-01 2.8207658376813433e-01 2.6403511216655165e+01 9.6759846404884069e+00 1 -3 0
1170 444 1 4.1499999999999998e-01 9.0387977256054541e-01 2.6543930485431034e+01 8.3028355416749005e+00 1 -3 0
231 444 1 4.1499999999999998e-01 8.5060258014075862e-01 2.6371105203051915e+01 1.1691356999471610e+01 4 4 0
230 444 1 4.1499999999999998e-01 3.0488882122865407e-01 2.4974617377551748e+01 1.1900912645442208e+01 4 4 0
1859 444 1 4.1499999999999998e-01 7.2948807214286338e-01 2.8084830808947213e+01 1.4784624564655736e+01 1 -2 0
2811 444 1 4.1499999999999998e-01 6.4595886945125258e-01 2.8105465406797641e+01 1.8224477384939377e+01 -2 1 0
2980 444 2 -8.2999999999999996e-01 1.5426737309400209e+00 2.7099126190869214e+01 1.9162502203537755e+01 -2 -1 0
2982 444 1 4.1499999999999998e-01 1.1504080253140363e+00 2.6792502906569400e+01 1.9980024276756620e+01 -2 -1 0
3192 444 4 0.0000000000000000e+00 1.6560500000000000e+00 2.9732749999999999e+01 0.0000000000000000e+00 0 0 0
3193 444 4 0.0000000000000000e+00 1.6818000000000000e+00 2.9754149999999999e+01 3.5834700000000002e+00 0 0 0
3195 444 4 0.0000000000000000e+00 1.6560500000000000e+00 3.1549700000000001e+01 1.8169999999999999e+00 0 0 0
2620 444 2 -8.2999999999999996e-01 2.3836320861943378e-01 3.0912658372662623e+01 6.1842004971885167e+00 -1 -4 0
2621 444 1 4.1499999999999998e-01 1.1935222655684017e+00 3.0889824424054957e+01 6.2423525541894334e+00 -1 -4 0
2543 444 1 4.1499999999999998e-01 7.6910084078941476e-01 2.9929080034671742e+01 9.8269556323182954e+00 0 2 0
2542 444 2 -8.2999999999999996e-01 1.5036330540795066e+00 2.9478141228907187e+01 9.4106041391872068e+00 0 2 0
110 444 1 4.1499999999999998e-01 7.6312309874854545e-01 3.2621382743829727e+01 1.3159856685667338e+01 6 3 0
2544 444 1 4.1499999999999998e-01 1.1233655802890918e+00 2.8672449467669622e+01 9.0606193185640524e+00 0 2 0
2068 444 2 -8.2999999999999996e-01 9.2257446324093106e-01 3.1607292607626384e+01 1.8336296224961767e+01 5 -1 0
2809 444 2 -8.2999999999999996e-01 3.8512440994125424e-01 2.8763767510160491e+01 1.7580400003937900e+01 -2 1 0
2070 444 1 4.1499999999999998e-01 6.6448751438498688e-01 3.0686246749822960e+01 1.8300268595489548e+01 5 -1 0
2069 444 1 4.1499999999999998e-01 1.1022048889587595e+00 3.1841977802012128e+01 1.7425863312838622e+01 5 -1 0
2810 444 1 4.1499999999999998e-01 9.7269706174394033e-01 2.8619766815673184e+01 1.6838608865383197e+01 -2 1 0
3038 444 4 0.0000000000000000e+00 3.4729999999999999e+00 6.6205000000000003e-01 1.8169999999999999e+00 0 0 0
3062 444 4 0.0000000000000000e+00 3.4698699999999998e+00 2.4657300000000002e+00 3.5980400000000001e+00 0 0 0
3063 444 4 0.0000000000000000e+00 3.4729999999999999e+00 2.4790000000000001e+00 0.0000000000000000e+00 0 0 0
317 444 1 4.1499999999999998e-01 3.3224892087114033e+00 2.8212123777583509e-01 6.6860294664347517e+00 6 4 0
102 444 1 4.1499999999999998e-01 2.2610805659725095e+00 2.4316915867081415e+00 7.4581575617064804e+00 -3 -4 0
78 444 1 4.1499999999999998e-01 2.3712831867878634e+00 2.5940829671174250e+00 1.3721198971061915e+01 -2 2 0
2580 444 1 4.1499999999999998e-01 2.5128320947216976e+00 3.3175347969599920e+00 1.0630476826081619e+01 0 -3 0
2026 444 2 -8.2999999999999996e-01 3.8225863768296202e+00 2.3408104157494849e+00 1.0691684660050887e+01 1 -1 0
2211 444 1 4.1499999999999998e-01 2.9600997320409950e+00 1.8147106996188345e-01 1.3378729600579307e+01 0 5 0
77 444 1 4.1499999999999998e-01 2.0533611455269276e+00 4.0059627892017664e+00 1.4165514437804321e+01 -2 2 0
891 444 1 4.1499999999999998e-01 3.8483100957459744e+00 2.0270644732763059e+00 1.5301385979410515e+01 1 1 0
889 444 2 -8.2999999999999996e-01 4.0324358490601586e+00 1.5861347800484964e+00 1.4471982228246912e+01 1 1 0
2021 444 1 4.1499999999999998e-01 2.6134095667025830e+00 2.5431683366460653e+00 1.9396222386600876e+01 0 2 0
1506 444 1 4.1499999999999998e-01 3.9103564202432781e+00 4.7625327620601066e-01 1.7812097349006653e+01 2 -2 0
2020 444 2 -8.2999999999999996e-01 2.9315113380895044e+00 3.4098798732446447e+00 1.9143527814854121e+01 0 2 0
1505 444 1 4.1499999999999998e-01 3.4813719212197003e+00 6.9030123023714196e-01 1.9248081847847025e+01 2 -2 0
2022 444 1 4.1499999999999998e-01 3.1399342277479527e+00 3.3271166674135677e+00 1.8212967351377820e+01 0 2 0
1843 444 2 -8.2999999999999996e-01 3.9580555428019952e+00 3.0375014569536023e+00 1.6748684408985845e+01 4 -5 0
3052 444 4 0.0000000000000000e+00 3.4729999999999999e+00 6.1128000000000000e+00 0.0000000000000000e+00 0 0 0
3053 444 4 0.0000000000000000e+00 3.4731700000000001e+00 6.1136699999999999e+00 3.5860099999999999e+00 0 0 0
3056 444 4 0.0000000000000000e+00 3.4729999999999999e+00 4.2959500000000004e+00 1.8169999999999999e+00 0 0 0
3076 444 4 0.0000000000000000e+00 3.4729999999999999e+00 7.9297500000000003e+00 1.8169999999999999e+00 0 0 0
2918 444 1 4.1499999999999998e-01 3.1659312831773256e+00 7.7536166312024015e+00 7.6366826300681216e+00 -3 0 0
1195 444 2 -8.2999999999999996e-01 2.1061457831777051e+00 4.9719924113792127e+00 6.6631701782989543e+00 -1 1 0
1197 444 1 4.1499999999999998e-01 3.0438876933369561e+00 4.7801916271828278e+00 6.6723648040602006e+00 -1 1 0
2917 444 2 -8.2999999999999996e-01 2.3838344023220190e+00 7.3195921889139361e+00 7.9775332554188569e+00 -3 0 0
1196 444 1 4.1499999999999998e-01 2.0460818920037309e+00 5.8888700942493148e+00 6.9314229426379912e+00 -1 1 0
598 444 2 -8.2999999999999996e-01 4.0073348335582208e+00 6.2895596146832498e+00 1.0054990814779339e+01 4 0 0
1446 444 1 4.1499999999999998e-01 3.2142303052858106e+00 5.5753827997666097e+00 1.5443705973913429e+01 0 4 0
599 444 1 4.1499999999999998e-01 3.7607102377568378e+00 5.4126444995787519e+00 9.7610036199239367e+00 4 0 0
1444 444 2 -8.2999999999999996e-01 2.5137894591677767e+00 5.5403294904895137e+00 1.4792257006845176e+01 0 4 0
711 444 1 4.1499999999999998e-01 3.5618611434677727e+00 6.2106329610030437e+00 1.3179629238439935e+01 2 -2 0
1275 444 1 4.1499999999999998e-01 3.2278105717292935e+00 7.8793384799310919e+00 1.7584718422439948e+01 0 3 0
590 444 1 4.1499999999999998e-01 2.5429461051005093e+00 5.6031422712192684e+00 1.8442058017689188e+01 2 2 0
3072 444 4 0.0000000000000000e+00 3.4729999999999999e+00 9.7467000000000006e+00 0.0000000000000000e+00 0 0 0
3073 444 4 0.0000000000000000e+00 3.4745400000000002e+00 9.7581399999999991e+00 3.5988500000000001e+00 0 0 0
3097 444 4 0.0000000000000000e+00 3.4729999999999999e+00 1.1563549999999999e+01 1.8169999999999999e+00 0 0 0
2374 444 2 -8.2999999999999996e-01 2.6557539133362780e+00 1.0178771441149440e+01 6.9512689675778772e+00 5 3 0
2376 444 1 4.1499999999999998e-01 2.6951423182795433e+00 1.0643890523015473e+01 7.7869394902959792e+00 5 3 0
2375 444 1 4.1499999999999998e-01 3.5708305820617583e+00 1.0079138413117464e+01 6.6887042631485647e+00 5 3 0
273 444 1 4.1499999999999998e-01 2.3800128668476743e+00 9.1892651559856784e+00 9.9682761639705717e+00 -1 -2 0
271 444 2 -8.2999999999999996e-01 3.2031644451386367e+00 9.0109351113247378e+00 1.0423087329021929e+01 -1 -2 0
508 444 2 -8.2999999999999996e-01 2.6444646152470419e+00 9.8879768214745720e+00 1.5426125262468533e+01 2 -2 0
1183 444 2 -8.2999999999999996e-01 3.9518740166882154e+00 1.2098191298276429e+01 1.3961143963728357e+01 -2 -2 0
510 444 1 4.1499999999999998e-01 2.1424178272566490e+00 1.0702848030927109e+01 1.5439045875075170e+01 2 -2 0
272 444 1 4.1499999999999998e-01 3.5300071901551169e+00 8.2060946281674223e+00 1.0021044919535992e+01 -1 -2 0
509 444 1 4.1499999999999998e-01 2.7048525174270486e+00 9.6286993314239755e+00 1.6345560146300951e+01 2 -2 0
144 444 1 4.1499999999999998e-01 2.7469812081366793e+00 1.0342055128646185e+01 1.9205852848187025e+01 0 2 0
142 444 2 -8.2999999999999996e-01 3.0951996983310495e+00 1.1139438236002091e+01 1.9604796369404884e+01 0 2 0
1273 444 2 -8.2999999999999996e-01 3.2599232532320750e+00 8.7560363459430910e+00 1.7967604176926166e+01 0 3 0
1128 444 1 4.1499999999999998e-01 3.8801247037813513e+00 1.1997568882802710e+01 1.8144992804406400e+01 -5 -1 0
3115 444 4 0.0000000000000000e+00 3.4729999999999999e+00 1.5197450000000000e+01 1.8169999999999999e+00 0 0 0
3121 444 4 0.0000000000000000e+00 3.4698699999999998e+00 1.3367229999999999e+01 3.5980400000000001e+00 0 0 0
3122 444 4 0.0000000000000000e+00 3.4729999999999999e+00 1.3380500000000000e+01 0.0000000000000000e+00 0 0 0
1934 444 1 4.1499999999999998e-01 2.5340512753972777e+00 1.4200255602337945e+01 6.3419375404240510e+00 -1 2 0
1933 444 2 -8.2999999999999996e-01 3.4172926367301328e+00 1.3832117149027964e+01 6.3662481093421688e+00 -1 2 0
1935 444 1 4.1499999999999998e-01 3.9944538201037649e+00 1.4584076275554105e+01 6.2333026189828384e+00 -1 2 0
1631 444 1 4.1499999999999998e-01 2.1279327395120879e+00 1.4331698609744288e+01 1.1420007079398868e+01 3 1 0
2107 444 2 -8.2999999999999996e-01 2.6785008261677485e+00 1.2680605581000203e+01 1.1489001896161751e+01 -4 -4 0
1622 444 1 4.1499999999999998e-01 2.5634249541015994e+00 1.6174557112619148e+01 8.1351016063098296e+00 -4 1 0
825 444 1 4.1499999999999998e-01 3.1897153899803450e+00 1.3023476358163300e+01 8.4563066195790011e+00 -1 -5 0
1632 444 1 4.1499999999999998e-01 2.1919496421504161e+00 1.5389707254991251e+01 1.0339074713173448e+01 3 1 0
1623 444 1 4.1499999999999998e-01 3.9164173135079450e+00 1.5675066595213009e+01 8.5953369412900837e+00 -4 1 0
1621 444 2 -8.2999999999999996e-01 2.9856989385838872e+00 1.5653262921267071e+01 8.8178682872531464e+00 -4 1 0
824 444 1 4.1499999999999998e-01 2.8188604365833729e+00 1.2457453461668244e+01 9.8105520046753174e+00 -1 -5 0
2109 444 1 4.1499999999999998e-01 3.0644309127178402e+00 1.2409039780928190e+01 1.2321793512374676e+01 -4 -4 0
1184 444 1 4.1499999999999998e-01 3.1068928451725677e+00 1.2282458878408480e+01 1.4371369675846257e+01 -2 -2 0
823 444 2 -8.2999999999999996e-01 2.7659878459738994e+00 1.2272987036975765e+01 8.8727834845561144e+00 -1 -5 0
2333 444 1 4.1499999999999998e-01 2.1648347103138210e+00 1.2742640588304015e+01 1.9538290941316539e+01 -2 -1 0
69 444 1 4.1499999999999998e-01 2.4108109028054585e+00 1.5458616958106035e+01 1.9055693016640241e+01 0 -7 0
2818 444 2 -8.2999999999999996e-01 3.9940470560912393e+00 1.4850706716094885e+01 1.6574041157416968e+01 -4 -1 0
2819 444 1 4.1499999999999998e-01 3.1099154293675544e+00 1.4724644473091955e+01 1.6229582958287637e+01 -4 -1 0
68 444 1 4.1499999999999998e-01 3.4674213475075222e+00 1.5641167124716842e+01 1.7986980970341598e+01 0 -7 0
67 444 2 -8.2999999999999996e-01 3.2222478864317123e+00 1.5929645621542965e+01 1.8866130061450296e+01 0 -7 0
1127 444 1 4.1499999999999998e-01 3.9939134176059876e+00 1.3126838682275670e+01 1.7143145720460563e+01 -5 -1 0
3111 444 4 0.0000000000000000e+00 3.4729999999999999e+00 1.7014299999999999e+01 0.0000000000000000e+00 0 0 0
3112 444 4 0.0000000000000000e+00 3.4731700000000001e+00 1.7015170000000001e+01 3.5860099999999999e+00 0 0 0
3135 444 4 0.0000000000000000e+00 3.4729999999999999e+00 1.8831250000000001e+01 1.8169999999999999e+00 0 0 0
1495 444 2 -8.2999999999999996e-01 2.3442036619411786e+00 1.7246741487257637e+01 6.9229824810958984e+00 -1 7 0
1787 444 1 4.1499999999999998e-01 3.3026613143964765e+00 1.7198127943155427e+01 1.3049923871449273e+01 -1 0 0
561 444 1 4.1499999999999998e-01 2.4328712212415180e+00 2.0002802721302782e+01 1.0051531602124919e+01 0 -1 0
560 444 1 4.1499999999999998e-01 3.7569681394506920e+00 1.9715087151505656e+01 9.3763409727002784e+00 0 -1 0
559 444 2 -8.2999999999999996e-01 2.9455485626031437e+00 2.0211740563419092e+01 9.2706738480273057e+00 0 -1 0
1786 444 2 -8.2999999999999996e-01 2.3825712585406027e+00 1.7242717916089919e+01 1.2789773905353185e+01 -1 0 0
2898 444 1 4.1499999999999998e-01 2.9323605522797327e+00 2.0019083941532724e+01 1.3082157160655884e+01 -1 8 0
1788 444 1 4.1499999999999998e-01 2.2027181748480889e+00 1.6388776737858450e+01 1.2396493730942943e+01 -1 0 0
2988 444 1 4.1499999999999998e-01 3.6542748257393827e+00 1.8771699184405815e+01 1.6335599632801550e+01 -4 0 0
3131 444 4 0.0000000000000000e+00 3.4729999999999999e+00 2.0648199999999999e+01 0.0000000000000000e+00 0 0 0
3132 444 4 0.0000000000000000e+00 3.4745400000000002e+00 2.0659640000000000e+01 3.5988500000000001e+00 0 0 0
3156 444 4 0.0000000000000000e+00 3.4729999999999999e+00 2.2465050000000002e+01 1.8169999999999999e+00 0 0 0
3180 444 4 0.0000000000000000e+00 3.4698699999999998e+00 2.4268730000000001e+01 3.5980400000000001e+00 0 0 0
3181 444 4 0.0000000000000000e+00 3.4729999999999999e+00 2.4282000000000000e+01 0.0000000000000000e+00 0 0 0
1660 444 2 -8.2999999999999996e-01 2.9421270613356989e+00 2.0816738670577291e+01 6.7969634727165831e+00 5 -5 0
1457 444 1 4.1499999999999998e-01 3.2700578494967409e+00 2.3530513014662358e+01 6.7134825842849288e+00 0 -1 0
1662 444 1 4.1499999999999998e-01 2.8517124350923191e+00 2.0589554439260038e+01 7.7224063281277964e+00 5 -5 0
1661 444 1 4.1499999999999998e-01 3.8845480766958671e+00 2.0922096870834572e+01 6.6666784217989132e+00 5 -5 0
1882 444 2 -8.2999999999999996e-01 3.4274915460056326e+00 2.2736803207506497e+01 1.4606056398031898e+01 0 -1 0
1995 444 1 4.1499999999999998e-01 2.2729365840683613e+00 2.1656362052600546e+01 1.5413508448579551e+01 2 1 0
2897 444 1 4.1499999999999998e-01 3.4735024215680665e+00 2.1275705821595860e+01 1.3730202278782022e+01 -1 8 0
1559 444 1 4.1499999999999998e-01 2.2069987651698768e+00 2.2027165170880419e+01 9.3993008076244440e+00 4 -3 0
1883 444 1 4.1499999999999998e-01 4.0657345769056574e+00 2.2735800822264157e+01 1.5319413000522625e+01 0 -1 0
1560 444 1 4.1499999999999998e-01 2.6167101868817770e+00 2.3388527539304960e+01 9.9196127417424442e+00 4 -3 0
2896 444 2 -8.2999999999999996e-01 3.6128998999460560e+00 2.0685787171160605e+01 1.2989394194166540e+01 -1 8 0
1884 444 1 4.1499999999999998e-01 3.8012787567742969e+00 2.3325595259035573e+01 1.3950434908567674e+01 0 -1 0
726 444 1 4.1499999999999998e-01 3.2157233938193883e+00 2.3771477728603475e+01 1.7926675731482529e+01 0 -6 0
538 444 2 -8.2999999999999996e-01 3.4190353381345098e+00 2.2015814731533318e+01 1.8002619405031872e+01 7 0 0
540 444 1 4.1499999999999998e-01 2.8500300653359014e+00 2.1641073223515097e+01 1.7330284854828118e+01 7 0 0
539 444 1 4.1499999999999998e-01 3.3138950858504796e+00 2.1435629055660744e+01 1.8756649913332659e+01 7 0 0
1993 444 2 -8.2999999999999996e-01 2.1454872031857963e+00 2.1017923177651113e+01 1.6115209486207451e+01 2 1 0
3170 444 4 0.0000000000000000e+00 3.4729999999999999e+00 2.7915800000000001e+01 0.0000000000000000e+00 0 0 0
3171 444 4 0.0000000000000000e+00 3.4731700000000001e+00 2.7916670000000000e+01 3.5860099999999999e+00 0 0 0
3174 444 4 0.0000000000000000e+00 3.4729999999999999e+00 2.6098949999999999e+01 1.8169999999999999e+00 0 0 0
219 444 1 4.1499999999999998e-01 2.5055267056660608e+00 2.5980278182505732e+01 7.1018856070179028e+00 1 -2 0
2087 444 1 4.1499999999999998e-01 3.8715305561629210e+00 2.7537427514221758e+01 8.2442589608765147e+00 -1 -2 0
330 444 1 4.1499999999999998e-01 2.8518560920414355e+00 2.6543098286994333e+01 1.1787699599105618e+01 -1 0 0
328 444 2 -8.2999999999999996e-01 2.6833235697192177e+00 2.6289627801578956e+01 1.2695213434500031e+01 -1 0 0
329 444 1 4.1499999999999998e-01 3.5210209341610228e+00 2.5948702444687285e+01 1.3008685759533838e+01 -1 0 0
2086 444 2 -8.2999999999999996e-01 3.7977967489565732e+00 2.7207045071822563e+01 9.1396042793456012e+00 -1 -2 0
724 444 2 -8.2999999999999996e-01 3.0244274399113089e+00 2.4707575188152930e+01 1.7984635121911502e+01 0 -6 0
725 444 1 4.1499999999999998e-01 2.0706319968821192e+00 2.4753974659216276e+01 1.8050613999447982e+01 0 -6 0
2981 444 1 4.1499999999999998e-01 2.2905645294583823e+00 2.6518349368278457e+01 1.9022538784240844e+01 -2 -1 0
3190 444 4 0.0000000000000000e+00 3.4729999999999999e+00 3.1549700000000001e+01 0.0000000000000000e+00 0 0 0
3191 444 4 0.0000000000000000e+00 3.4745400000000002e+00 3.1561140000000002e+01 3.5988500000000001e+00 0 0 0
3194 444 4 0.0000000000000000e+00 3.4729999999999999e+00 2.9732749999999999e+01 1.8169999999999999e+00 0 0 0
568 444 2 -8.2999999999999996e-01 2.7639800944395794e+00 3.0296081396098980e+01 7.2451939577273734e+00 2 0 0
318 444 1 4.1499999999999998e-01 3.8923014426718168e+00 3.1584319606657179e+01 6.7135864040162545e+00 6 3 0
569 444 1 4.1499999999999998e-01 3.1690586818188251e+00 2.9487463264285477e+01 6.9316976028509396e+00 2 0 0
356 444 1 4.1499999999999998e-01 3.4805823211263744e+00 2.9650095476755602e+01 1.1716566434563266e+01 -7 7 0
357 444 1 4.1499999999999998e-01 2.3575163041006051e+00 3.0304171996755926e+01 1.0940163235384667e+01 -7 7 0
2210 444 1 4.1499999999999998e-01 2.6760878074332601e+00 3.1522895722847494e+01 1.2784374296245062e+01 0 4 0
2209 444 2 -8.2999999999999996e-01 2.2939770391836998e+00 3.2199487043411210e+01 1.3343344360318467e+01 0 4 0
63 444 1 4.1499999999999998e-01 2.3003034377244984e+00 3.2157271552315713e+01 1.4988030665212849e+01 -4 2 0
355 444 2 -8.2999999999999996e-01 2.8746730686620401e+00 3.0390710317760462e+01 1.1740970258959285e+01 -7 7 0
61 444 2 -8.2999999999999996e-01 2.2865365229692394e+00 3.2304995242218133e+01 1.5933662776230799e+01 -4 2 0
570 444 1 4.1499999999999998e-01 2.5021787450962978e+00 3.0100234438554438e+01 8.1448249992035233e+00 2 0 0
62 444 1 4.1499999999999998e-01 2.8258860465196047e+00 3.1601273988845719e+01 1.6294370933993786e+01 -4 2 0
3042 444 4 0.0000000000000000e+00 5.2898399999999999e+00 6.6205000000000003e-01 0.0000000000000000e+00 0 0 0
3043 444 4 0.0000000000000000e+00 5.2731399999999997e+00 6.5798999999999996e-01 3.5986500000000001e+00 0 0 0