LAMMPS data file via write_data, version 11 Aug 2017, timestep = 1000000

3558 atoms
13 atom types
2024 bonds
5 bond types
1018 angles
5 angle types
12 dihedrals
4 dihedral types
9 impropers
1 improper types

0.0000000000000000e+00 3.2704500000000003e+01 xlo xhi
0.0000000000000000e+00 3.2704500000000003e+01 ylo yhi
0.0000000000000000e+00 8.0000000000000000e+01 zlo zhi

Masses

1 1.0079
2 15.9994
3 39.0983
4 63.546
5 12.011
6 15.9994
7 1.0079
8 12.011
9 12.011
10 15.9994
11 15.9994
12 15.9994
13 1.0079

Bond Coeffs # harmonic

1 450 0.9572
2 570 1.229
3 450 1.364
4 570 1.229
5 553 0.945

Angle Coeffs # harmonic

1 100 123.32
2 85 124
3 55 104.52
4 35 113
5 100 123.32

Dihedral Coeffs # charmm

1 0.922 1 180 0
2 3.741 2 0 0
3 0.922 1 0 0
4 3.741 2 180 0

Improper Coeffs # umbrella

1 21 0

Atoms # full

3037 444 4 0.0000000000000000e+00 1.6580800000000000e+00 6.4029999999999998e-01 3.5968599999999999e+00 0 0 0
3039 444 4 0.0000000000000000e+00 1.6560500000000000e+00 2.4790000000000001e+00 1.8169999999999999e+00 0 0 0
3048 444 4 0.0000000000000000e+00 1.6560500000000000e+00 6.6205000000000003e-01 0.0000000000000000e+00 0 0 0
1458 444 1 4.1499999999999998e-01 3.3689201720847267e-01 1.7390011474932601e+00 6.4975732455564188e+00 4 3 0
1456 444 2 -8.2999999999999996e-01 1.2126917941872712e+00 1.3538159028231675e+00 6.4686085534251951e+00 4 3 0
1457 444 1 4.1499999999999998e-01 1.8058663163932513e+00 2.0989559439951271e+00 6.5642232399742788e+00 4 3 0
676 444 2 -8.2999999999999996e-01 1.8023529245153553e+00 8.3187549259713234e-01 1.1064810236833189e+01 2 -1 0
1366 444 2 -8.2999999999999996e-01 8.5893454621833587e-01 8.1688392624577089e-01 1.5317896419055629e+01 1 -3 0
1368 444 1 4.1499999999999998e-01 1.4364671508381883e+00 2.3599057258611947e-01 1.4822668193579982e+01 1 -3 0
2069 444 1 4.1499999999999998e-01 2.3943667269941299e-01 2.1261046339830134e+00 1.4198151734554374e+01 6 5 0
2939 444 1 4.1499999999999998e-01 3.9047336631556212e-01 1.6045553343973247e+00 9.7424111015101182e+00 2 0 0
677 444 1 4.1499999999999998e-01 1.7736082083528437e+00 4.5039849664156861e-02 1.0520478606190968e+01 2 -1 0
388 444 2 -8.2999999999999996e-01 1.5306107881142577e+00 5.3274501894630011e-01 1.8918849263367903e+01 2 -4 0
284 444 1 4.1499999999999998e-01 2.0290844769820700e+00 1.9523322289822413e+00 1.6133898230876568e+01 -4 2 0
389 444 1 4.1499999999999998e-01 7.1911439958216583e-01 9.2744649792448830e-01 1.8599604592581755e+01 2 -4 0
285 444 1 4.1499999999999998e-01 1.8795965443647171e+00 3.3087441391568304e+00 1.6789409695016655e+01 -4 2 0
390 444 1 4.1499999999999998e-01 1.2762498458941454e+00 7.6595008182110291e-02 1.9721008778422295e+01 2 -4 0
3054 444 4 0.0000000000000000e+00 1.6560500000000000e+00 4.2959500000000004e+00 0.0000000000000000e+00 0 0 0
3055 444 4 0.0000000000000000e+00 1.6709700000000001e+00 4.2966100000000003e+00 3.5721200000000000e+00 0 0 0
3057 444 4 0.0000000000000000e+00 1.6560500000000000e+00 6.1128000000000000e+00 1.8169999999999999e+00 0 0 0
3074 444 4 0.0000000000000000e+00 1.6560500000000000e+00 7.9297500000000003e+00 0.0000000000000000e+00 0 0 0
3075 444 4 0.0000000000000000e+00 1.6545600000000000e+00 7.9268200000000002e+00 3.5887799999999999e+00 0 0 0
348 444 1 4.1499999999999998e-01 4.5122807698448186e-01 5.8425524270532661e+00 7.0808630577568161e+00 -4 4 0
346 444 2 -8.2999999999999996e-01 1.0966236786747345e+00 5.4002187316811003e+00 6.5294667434637610e+00 -4 4 0
347 444 1 4.1499999999999998e-01 1.7022555103893475e+00 6.0930405728505121e+00 6.2659511868508426e+00 -4 4 0
936 444 1 4.1499999999999998e-01 1.0589303608587601e+00 7.4311092717870908e+00 1.0089934598299472e+01 2 0 0
476 444 1 4.1499999999999998e-01 8.1196020812037117e-01 4.7189765898886309e+00 1.2866667890700132e+01 2 1 0
1352 444 1 4.1499999999999998e-01 1.4331839193913118e+00 6.1955161515579746e+00 1.5846422477580028e+01 2 -7 0
477 444 1 4.1499999999999998e-01 1.2707572681018702e+00 5.2928000640563457e+00 1.1542988477423572e+01 2 1 0
475 444 2 -8.2999999999999996e-01 1.1353248556449940e+00 5.5238812256149057e+00 1.2461950660431219e+01 2 1 0
1735 444 2 -8.2999999999999996e-01 2.0410737727082626e+00 5.9923493783179618e+00 9.2105849909056801e+00 -1 2 0
1007 444 1 4.1499999999999998e-01 9.6262545716452430e-02 6.7134120239075159e+00 1.3516789192683438e+01 -2 1 0
934 444 2 -8.2999999999999996e-01 2.3958890096015062e-01 7.8582368717398650e+00 1.0339882513241204e+01 2 0 0
1736 444 1 4.1499999999999998e-01 1.4422452956071123e+00 5.3077546125914346e+00 8.9123115414986191e+00 -1 2 0
2821 444 2 -8.2999999999999996e-01 1.0668470738156666e+00 4.4862201009822922e+00 1.7862850398825664e+01 1 1 0
2823 444 1 4.1499999999999998e-01 1.1777514100849653e+00 4.4597877776394421e+00 1.8813236857670042e+01 1 1 0
2822 444 1 4.1499999999999998e-01 4.3604675982499658e-01 5.1906841680859150e+00 1.7714346423924180e+01 1 1 0
3077 444 4 0.0000000000000000e+00 1.6560500000000000e+00 9.7467000000000006e+00 1.8169999999999999e+00 0 0 0
3095 444 4 0.0000000000000000e+00 1.6580800000000000e+00 1.1541800000000000e+01 3.5968599999999999e+00 0 0 0
3106 444 4 0.0000000000000000e+00 1.6560500000000000e+00 1.1563549999999999e+01 0.0000000000000000e+00 0 0 0
2521 444 2 -8.2999999999999996e-01 7.2795281487141217e-01 8.7360464300705960e+00 6.5296102540576699e+00 0 3 0
2522 444 1 4.1499999999999998e-01 1.6927283150226777e-01 9.5124066677634023e+00 6.5666684431991138e+00 0 3 0
2523 444 1 4.1499999999999998e-01 1.5750033946975499e+00 9.0338742239078904e+00 6.8613266652417186e+00 0 3 0
2105 444 1 4.1499999999999998e-01 1.8595860914593976e-01 1.1741162671864856e+01 6.8237731253098426e+00 7 -1 0
1471 444 2 -8.2999999999999996e-01 7.4388627178095612e-01 9.9686721000538316e+00 1.2108938247868743e+01 -2 0 0
1472 444 1 4.1499999999999998e-01 2.5545863446422201e-01 9.2473480047036833e+00 1.1712249169312114e+01 -2 0 0
2714 444 1 4.1499999999999998e-01 1.9846998829573576e-01 1.1019111420269432e+01 1.0008411224423522e+01 -1 2 0
2713 444 2 -8.2999999999999996e-01 4.4572583362694451e-01 1.0500376985886266e+01 9.2428972063340247e+00 -1 2 0
935 444 1 4.1499999999999998e-01 2.0877491248608399e-01 8.6506432880729882e+00 9.8038087319646579e+00 2 0 0
1112 444 1 4.1499999999999998e-01 1.1561322174122779e-01 1.0266860797699115e+01 1.3948809690251428e+01 1 0 0
1473 444 1 4.1499999999999998e-01 1.5164278102821618e+00 9.5532767008200903e+00 1.2492159160077241e+01 -2 0 0
2057 444 1 4.1499999999999998e-01 1.8217835299579006e+00 1.0077562605732879e+01 8.4296200012503455e+00 -1 -8 0
2715 444 1 4.1499999999999998e-01 1.3391915592131967e-01 1.1011274196328332e+01 8.4959075679023250e+00 -1 2 0
2304 444 1 4.1499999999999998e-01 2.0328597549777720e+00 1.0799504436889020e+01 1.7336441460716848e+01 1 -2 0
2638 444 2 -8.2999999999999996e-01 9.2798758556159669e-02 1.0845283299868733e+01 1.6979332177648821e+01 -3 0 0
3097 444 4 0.0000000000000000e+00 1.6560500000000000e+00 1.3380500000000000e+01 1.8169999999999999e+00 0 0 0
3112 444 4 0.0000000000000000e+00 1.6560500000000000e+00 1.5197450000000000e+01 0.0000000000000000e+00 0 0 0
3113 444 4 0.0000000000000000e+00 1.6709700000000001e+00 1.5198110000000000e+01 3.5721200000000000e+00 0 0 0
2848 444 2 -8.2999999999999996e-01 1.5391256251566432e+00 1.5183202006975643e+01 6.6402407996312736e+00 -7 5 0
286 444 2 -8.2999999999999996e-01 1.5720696321829795e+00 1.2544942433903406e+01 6.9696428623612698e+00 -4 -2 0
288 444 1 4.1499999999999998e-01 1.4449861842221920e+00 1.3411011012729709e+01 6.5823356510943887e+00 -4 -2 0
2849 444 1 4.1499999999999998e-01 5.9987637659027415e-01 1.5261778079518205e+01 6.4733013170879632e+00 -7 5 0
2850 444 1 4.1499999999999998e-01 1.8156944342096826e+00 1.6068485832907292e+01 6.8769159690506001e+00 -7 5 0
76 444 2 -8.2999999999999996e-01 8.9572564369424523e-01 1.5242364777604914e+01 1.5198884022077165e+01 2 -5 0
645 444 1 4.1499999999999998e-01 1.5395849121790908e+00 1.4493197361919121e+01 1.2099414475212534e+01 -2 3 0
643 444 2 -8.2999999999999996e-01 6.5184491579334936e-01 1.4849229405323996e+01 1.2062112703774384e+01 -2 3 0
77 444 1 4.1499999999999998e-01 1.6455578473639174e-01 1.5843610467513928e+01 1.5340750575368988e+01 2 -5 0
644 444 1 4.1499999999999998e-01 2.7119999935836675e-01 1.4634553167103682e+01 1.2913732271372853e+01 -2 3 0
78 444 1 4.1499999999999998e-01 6.4410698663918220e-01 1.4444543610004317e+01 1.5664073590645408e+01 2 -5 0
489 444 1 4.1499999999999998e-01 1.8849426783555614e+00 1.4569457432721904e+01 1.7157449152326748e+01 -4 4 0
2689 444 2 -8.2999999999999996e-01 1.9076529990283403e-01 1.3368702753997885e+01 1.6726306020979681e+01 2 -1 0
2690 444 1 4.1499999999999998e-01 1.8885991747167327e-01 1.2458528161095030e+01 1.7022634287233174e+01 2 -1 0
3115 444 4 0.0000000000000000e+00 1.6560500000000000e+00 1.7014299999999999e+01 1.8169999999999999e+00 0 0 0
3132 444 4 0.0000000000000000e+00 1.6560500000000000e+00 1.8831250000000001e+01 0.0000000000000000e+00 0 0 0
3133 444 4 0.0000000000000000e+00 1.6545600000000000e+00 1.8828320000000001e+01 3.5887799999999999e+00 0 0 0
2449 444 2 -8.2999999999999996e-01 4.6146243250896907e-01 1.9930508983428357e+01 6.4389008289721437e+00 2 2 0
2451 444 1 4.1499999999999998e-01 1.4045891715072665e+00 1.9985671437933668e+01 6.2849466502218805e+00 2 2 0
1277 444 1 4.1499999999999998e-01 1.2236148692960902e+00 1.8654151321425864e+01 1.3986989554637915e+01 -3 -3 0
1278 444 1 4.1499999999999998e-01 1.3462087133794658e+00 1.8756513545268895e+01 1.5492442283133785e+01 -3 -3 0
2030 444 1 4.1499999999999998e-01 3.7339655047633497e-01 1.8001839174482491e+01 9.6408441949853749e+00 4 1 0
1276 444 2 -8.2999999999999996e-01 1.6481505889829218e+00 1.9161016196866385e+01 1.4679152323654630e+01 -3 -3 0
2309 444 1 4.1499999999999998e-01 8.0146114568259585e-01 1.6813636067070920e+01 1.2463689567272068e+01 6 0 0
2272 444 2 -8.2999999999999996e-01 1.9402619332766899e+00 1.9046031653158909e+01 9.8782122900648215e+00 2 -3 0
2308 444 2 -8.2999999999999996e-01 6.1551284291904329e-01 1.7578531530368824e+01 1.3008291181823106e+01 6 0 0
549 444 1 4.1499999999999998e-01 9.7945168847388375e-01 1.7955714238516801e+01 1.7850361689131926e+01 -2 3 0
548 444 1 4.1499999999999998e-01 1.1370576580266599e-01 1.9197240799433413e+01 1.7818881674297980e+01 -2 3 0
547 444 2 -8.2999999999999996e-01 4.1406259666866796e-01 1.8469855078394662e+01 1.7273970996193217e+01 -2 3 0
1804 444 2 -8.2999999999999996e-01 1.7438545501487392e+00 1.7095792335180533e+01 1.9272592620966275e+01 -4 5 0
1806 444 1 4.1499999999999998e-01 1.4641216509197437e+00 1.6527646101290166e+01 1.9990360967565099e+01 -4 5 0
3135 444 4 0.0000000000000000e+00 1.6560500000000000e+00 2.0648199999999999e+01 1.8169999999999999e+00 0 0 0
3153 444 4 0.0000000000000000e+00 1.6580800000000000e+00 2.2443300000000001e+01 3.5968599999999999e+00 0 0 0
3155 444 4 0.0000000000000000e+00 1.6560500000000000e+00 2.4282000000000000e+01 1.8169999999999999e+00 0 0 0
3164 444 4 0.0000000000000000e+00 1.6560500000000000e+00 2.2465050000000002e+01 0.0000000000000000e+00 0 0 0
467 444 1 4.1499999999999998e-01 1.7575102066611719e+00 2.2564610756269943e+01 6.8214135066708650e+00 9 -3 0
1612 444 2 -8.2999999999999996e-01 1.8948929966610836e-01 2.2425284245771156e+01 7.2961616708050174e+00 0 -1 0
2450 444 1 4.1499999999999998e-01 2.1526823846526699e-01 2.0806290484822270e+01 6.7366062482259581e+00 2 2 0
391 444 2 -8.2999999999999996e-01 1.9085383805425395e+00 2.1896762169824544e+01 1.1964410495203223e+01 4 0 0
1926 444 1 4.1499999999999998e-01 1.2108421975844412e+00 2.2069856330473460e+01 1.5962426469598967e+01 -1 1 0
1925 444 1 4.1499999999999998e-01 1.5042578742619506e-01 2.1065628178231151e+01 1.5563756073108545e+01 -1 1 0
1055 444 1 4.1499999999999998e-01 4.9195612112757658e-01 2.0954126215703457e+01 1.2264408862136353e+01 1 1 0
1613 444 1 4.1499999999999998e-01 1.1075490175559897e-02 2.2247520442755313e+01 8.2196336137455752e+00 0 -1 0
1274 444 1 4.1499999999999998e-01 8.8200733681444576e-01 2.1514804969810942e+01 1.9603731903479062e+01 3 -1 0
1924 444 2 -8.2999999999999996e-01 2.6925570897716850e-01 2.1904267824252493e+01 1.6009620411070834e+01 -1 1 0
601 444 2 -8.2999999999999996e-01 1.0377301269569419e+00 2.3806386666620856e+01 1.8583213469738595e+01 -3 -1 0
603 444 1 4.1499999999999998e-01 9.1550448759714165e-01 2.3761071398843182e+01 1.9531496264892496e+01 -3 -1 0
602 444 1 4.1499999999999998e-01 1.9846784686077861e+00 2.3883514635411071e+01 1.8466709864662338e+01 -3 -1 0
3170 444 4 0.0000000000000000e+00 1.6560500000000000e+00 2.6098949999999999e+01 0.0000000000000000e+00 0 0 0
3171 444 4 0.0000000000000000e+00 1.6709700000000001e+00 2.6099609999999998e+01 3.5721200000000000e+00 0 0 0
3173 444 4 0.0000000000000000e+00 1.6560500000000000e+00 2.7915800000000001e+01 1.8169999999999999e+00 0 0 0
27 444 1 4.1499999999999998e-01 1.2004828713217575e+00 2.5590092770394978e+01 6.8324625254257132e+00 -1 4 0
781 444 2 -8.2999999999999996e-01 1.9870472694726493e+00 2.6344759300002842e+01 1.2252264468316602e+01 2 0 0
1024 444 1 4.1499999999999998e-01 1.6503134046533863e+00 2.6135499371080414e+01 9.1091678860961007e+00 3 0 0
1022 444 2 -8.2999999999999996e-01 1.4143845806713822e+00 2.5580218368495196e+01 9.8522913392578033e+00 3 0 0
2896 444 2 -8.2999999999999996e-01 6.3460501364748401e-01 2.7964883618380501e+01 1.5180130683759050e+01 2 -2 0
250 444 2 -8.2999999999999996e-01 1.9721223374656558e+00 2.7842479005728119e+01 8.4899514710576760e+00 -3 -4 0
782 444 1 4.1499999999999998e-01 1.1838184075664457e+00 2.6582411839348918e+01 1.2715488507187981e+01 2 0 0
252 444 1 4.1499999999999998e-01 1.1660203198552799e+00 2.8352321408253371e+01 8.5705275619665233e+00 -3 -4 0
2897 444 1 4.1499999999999998e-01 1.3858229591000213e+00 2.8544037196504760e+01 1.5051735633873195e+01 2 -2 0
783 444 1 4.1499999999999998e-01 1.7025681246063034e+00 2.6162196649147958e+01 1.1356734256628638e+01 2 0 0
359 444 1 4.1499999999999998e-01 1.8447496370836252e+00 2.8070146202661519e+01 1.7908594455759712e+01 -2 -2 0
1207 444 2 -8.2999999999999996e-01 6.7951791613622492e-01 2.6807545603472477e+01 1.7557650223206682e+01 -3 2 0
2898 444 1 4.1499999999999998e-01 5.4537562594154543e-01 2.7894691187442877e+01 1.6130574608978094e+01 2 -2 0
1208 444 1 4.1499999999999998e-01 8.8934273798450358e-01 2.5876952244519043e+01 1.7478899584188596e+01 -3 2 0
3190 444 4 0.0000000000000000e+00 1.6560500000000000e+00 2.9732749999999999e+01 0.0000000000000000e+00 0 0 0
3191 444 4 0.0000000000000000e+00 1.6545600000000000e+00 2.9729820000000000e+01 3.5887799999999999e+00 0 0 0
3193 444 4 0.0000000000000000e+00 1.6560500000000000e+00 3.1549700000000001e+01 1.8169999999999999e+00 0 0 0
1668 444 1 4.1499999999999998e-01 1.7198844314505317e+00 3.0937639853903267e+01 6.4481034782598510e+00 0 1 0
1666 444 2 -8.2999999999999996e-01 7.6471421563962239e-01 3.0901619177451625e+01 6.3972570137858185e+00 0 1 0
1667 444 1 4.1499999999999998e-01 4.9589142586399021e-01 3.1813235429519445e+01 6.2835777259821421e+00 0 1 0
328 444 2 -8.2999999999999996e-01 1.4811985549192572e+00 3.1547569430469718e+01 9.2713887122610128e+00 3 0 0
330 444 1 4.1499999999999998e-01 8.8038891888699633e-01 3.0809595262135581e+01 9.3746068686699005e+00 3 0 0
409 444 2 -8.2999999999999996e-01 1.4371652195356743e+00 3.0660554322631825e+01 1.2813083078566493e+01 -3 5 0
329 444 1 4.1499999999999998e-01 1.4387185089598993e+00 3.1763126072599469e+01 8.3397434282398137e+00 3 0 0
411 444 1 4.1499999999999998e-01 1.3064469726278818e+00 3.1608121276538064e+01 1.2848600275957519e+01 -3 5 0
360 444 1 4.1499999999999998e-01 1.4897480551230056e+00 2.9421205690884523e+01 1.8492124508656300e+01 -2 -2 0
3038 444 4 0.0000000000000000e+00 3.4729999999999999e+00 6.6205000000000003e-01 1.8169999999999999e+00 0 0 0
3062 444 4 0.0000000000000000e+00 3.4545900000000000e+00 2.4505900000000000e+00 3.5969500000000001e+00 0 0 0
3063 444 4 0.0000000000000000e+00 3.4729999999999999e+00 2.4790000000000001e+00 0.0000000000000000e+00 0 0 0
1801 444 2 -8.2999999999999996e-01 3.0234769268289221e+00 3.4792838103867307e+00 6.9213540422125606e+00 -2 0 0
1803 444 1 4.1499999999999998e-01 3.8892200435752455e+00 3.6785560072016952e+00 6.5649675686239846e+00 -2 0 0
2907 444 1 4.1499999999999998e-01 2.3991339850614946e+00 2.7619551484104066e-01 6.7525886921550500e+00 -3 2 0
1693 444 2 -8.2999999999999996e-01 3.5281784524046866e+00 3.0047385583746284e+00 1.3786485038285063e+01 5 8 0
526 444 2 -8.2999999999999996e-01 3.5842368622981691e+00 2.8169566945251088e+00 9.6169581348765458e+00 2 2 0
678 444 1 4.1499999999999998e-01 2.2518349591179252e+00 5.5502425308414649e-01 1.1863278585040106e+01 2 -1 0
497 444 1 4.1499999999999998e-01 3.0772442089749483e+00 1.3878315553044798e+00 1.3849130301088293e+01 0 2 0
527 444 1 4.1499999999999998e-01 3.2658420952978284e+00 2.9622677230363847e+00 8.7260360660491738e+00 2 2 0
528 444 1 4.1499999999999998e-01 2.9314234637903747e+00 2.2404403800725969e+00 1.0014067577329916e+01 2 2 0
1694 444 1 4.1499999999999998e-01 3.2835454461155793e+00 3.0252246486154699e+00 1.4711669825773821e+01 5 8 0
496 444 2 -8.2999999999999996e-01 2.9818945035164499e+00 4.7640486512808933e-01 1.3572649376004893e+01 0 2 0
1695 444 1 4.1499999999999998e-01 3.6520708959614341e+00 3.9241070544193608e+00 1.3550595061468842e+01 5 8 0
2294 444 1 4.1499999999999998e-01 3.5449662409054090e+00 1.8296925206720414e+00 1.7355596662284778e+01 -4 -5 0
2293 444 2 -8.2999999999999996e-01 3.8150945273554462e+00 9.7055012042254218e-01 1.7679844865135852e+01 -4 -5 0
283 444 2 -8.2999999999999996e-01 2.4805338055333852e+00 2.7873283237614985e+00 1.6257214415278185e+01 -4 2 0
2295 444 1 4.1499999999999998e-01 3.0174898521050362e+00 5.9193727258427442e-01 1.8049589313562930e+01 -4 -5 0
3052 444 4 0.0000000000000000e+00 3.4729999999999999e+00 6.1128000000000000e+00 0.0000000000000000e+00 0 0 0
3053 444 4 0.0000000000000000e+00 3.4770799999999999e+00 6.1200299999999999e+00 3.5940200000000000e+00 0 0 0
3056 444 4 0.0000000000000000e+00 3.4729999999999999e+00 4.2959500000000004e+00 1.8169999999999999e+00 0 0 0
3076 444 4 0.0000000000000000e+00 3.4729999999999999e+00 7.9297500000000003e+00 1.8169999999999999e+00 0 0 0
1858 444 2 -8.2999999999999996e-01 3.5016169776573260e+00 7.2385049805757609e+00 7.0745904672012649e+00 3 1 0
1859 444 1 4.1499999999999998e-01 3.6659140730540343e+00 8.1142988294020828e+00 7.4241954705516369e+00 3 1 0
1802 444 1 4.1499999999999998e-01 2.4542349040844096e+00 4.1609586767715969e+00 6.5642619903549431e+00 -2 0 0
1351 444 2 -8.2999999999999996e-01 2.2485622800377900e+00 5.7897827206847214e+00 1.5551853287909363e+01 2 -7 0
2424 444 1 4.1499999999999998e-01 3.4891403510273626e+00 6.6957921258326056e+00 1.1638702378970502e+01 -5 -4 0
2422 444 2 -8.2999999999999996e-01 3.8474748202181575e+00 6.9146480758428952e+00 1.0778510347935711e+01 -5 -4 0
1353 444 1 4.1499999999999998e-01 2.1497262433246802e+00 4.8639095970178658e+00 1.5773714909863473e+01 2 -7 0
878 444 1 4.1499999999999998e-01 3.5304446340862716e+00 5.8800965831849465e+00 1.4480962198956224e+01 1 -1 0
1737 444 1 4.1499999999999998e-01 2.7183985850049699e+00 6.0296661700983636e+00 8.5352545318572677e+00 -1 2 0
2423 444 1 4.1499999999999998e-01 3.1640599609808486e+00 6.6549114547332078e+00 1.0160681166482345e+01 -5 -4 0
3072 444 4 0.0000000000000000e+00 3.4729999999999999e+00 9.7467000000000006e+00 0.0000000000000000e+00 0 0 0
3073 444 4 0.0000000000000000e+00 3.4521000000000002e+00 9.7466600000000003e+00 3.5965099999999999e+00 0 0 0
3096 444 4 0.0000000000000000e+00 3.4729999999999999e+00 1.1563549999999999e+01 1.8169999999999999e+00 0 0 0
1065 444 1 4.1499999999999998e-01 3.6371081001827918e+00 1.1033896084684491e+01 7.0803373917074826e+00 -2 8 0
1669 444 2 -8.2999999999999996e-01 2.4842689946420613e+00 8.6770778414514247e+00 1.5133016820599194e+01 -1 5 0
2056 444 2 -8.2999999999999996e-01 2.6692805429519697e+00 9.8655061183348653e+00 8.0384515594800749e+00 -1 -8 0
1670 444 1 4.1499999999999998e-01 2.0821327684382678e+00 8.2202590795142463e+00 1.5871823351458611e+01 -1 5 0
2058 444 1 4.1499999999999998e-01 3.2574256981409104e+00 9.7547813890027815e+00 8.7854838035809149e+00 -1 -8 0
226 444 2 -8.2999999999999996e-01 3.5518418128006637e+00 1.1042897442331180e+01 1.3931217806335431e+01 3 -2 0
1295 444 1 4.1499999999999998e-01 3.8283623526781416e+00 1.1802055966016781e+01 1.0923455045864756e+01 -1 -2 0
228 444 1 4.1499999999999998e-01 3.0018074803960832e+00 1.0542859758116462e+01 1.4534257832394399e+01 3 -2 0
1671 444 1 4.1499999999999998e-01 3.4242448648905155e+00 8.5367231657623233e+00 1.5246938676036359e+01 -1 5 0
1562 444 1 4.1499999999999998e-01 3.0836403812618340e+00 1.2226340855783212e+01 1.2983452019984949e+01 2 1 0
2302 444 2 -8.2999999999999996e-01 2.8575783351846900e+00 1.0750575339893718e+01 1.7819843317632230e+01 1 -2 0
771 444 1 4.1499999999999998e-01 3.4954758780415021e+00 9.2671875088243336e+00 1.8426480662814161e+01 -1 -5 0
769 444 2 -8.2999999999999996e-01 4.0364206964775384e+00 8.7181683590495922e+00 1.8994097208439101e+01 -1 -5 0
2303 444 1 4.1499999999999998e-01 2.8318939322493599e+00 1.1500031974811719e+01 1.8414727793138916e+01 1 -2 0
3114 444 4 0.0000000000000000e+00 3.4729999999999999e+00 1.5197450000000000e+01 1.8169999999999999e+00 0 0 0
3120 444 4 0.0000000000000000e+00 3.4545900000000000e+00 1.3352090000000000e+01 3.5969500000000001e+00 0 0 0
3121 444 4 0.0000000000000000e+00 3.4729999999999999e+00 1.3380500000000000e+01 0.0000000000000000e+00 0 0 0
2342 444 1 4.1499999999999998e-01 3.2831422518281537e+00 1.4782231208682191e+01 6.7935220779378831e+00 0 3 0
287 444 1 4.1499999999999998e-01 2.3386821567778666e+00 1.2644614833321045e+01 7.5340917099641587e+00 -4 -2 0
1064 444 1 4.1499999999999998e-01 3.9086967869664004e+00 1.2314634220032175e+01 6.3201761659984150e+00 -2 8 0
1561 444 2 -8.2999999999999996e-01 3.0108377223387928e+00 1.2852339501196962e+01 1.2262995672144132e+01 2 1 0
789 444 1 4.1499999999999998e-01 2.9985066602994155e+00 1.4036883668963586e+01 9.3586525242610232e+00 1 -1 0
451 444 2 -8.2999999999999996e-01 3.4459545262238627e+00 1.6150728742359242e+01 1.4447347844902430e+01 1 -1 0
1563 444 1 4.1499999999999998e-01 3.7264399708931841e+00 1.3470982965517038e+01 1.2409370241636561e+01 2 1 0
788 444 1 4.1499999999999998e-01 2.3147954989252266e+00 1.3068306962510071e+01 1.0300084115977461e+01 1 -1 0
787 444 2 -8.2999999999999996e-01 2.1963237996089138e+00 1.3526197609783143e+01 9.4678984207042820e+00 1 -1 0
1497 444 1 4.1499999999999998e-01 3.8207523920486639e+00 1.6230695638440523e+01 1.1232150778701460e+01 -1 1 0
453 444 1 4.1499999999999998e-01 2.5233326618187197e+00 1.5895888075973957e+01 1.4439762237464663e+01 1 -1 0
488 444 1 4.1499999999999998e-01 2.3938266365275078e+00 1.5574700865641155e+01 1.8168596190561143e+01 -4 4 0
2800 444 2 -8.2999999999999996e-01 3.0287977814914235e+00 1.2665254749546838e+01 1.9608117434924203e+01 2 2 0
2801 444 1 4.1499999999999998e-01 2.9948860248052678e+00 1.3310403785354342e+01 1.8901813978244611e+01 2 2 0
487 444 2 -8.2999999999999996e-01 2.5703738935868268e+00 1.4704178048985844e+01 1.7811869935784674e+01 -4 4 0
3110 444 4 0.0000000000000000e+00 3.4729999999999999e+00 1.7014299999999999e+01 0.0000000000000000e+00 0 0 0
3111 444 4 0.0000000000000000e+00 3.4770799999999999e+00 1.7021529999999998e+01 3.5940200000000000e+00 0 0 0
3134 444 4 0.0000000000000000e+00 3.4729999999999999e+00 1.8831250000000001e+01 1.8169999999999999e+00 0 0 0
567 444 1 4.1499999999999998e-01 3.2877420051572823e+00 1.8969051238608408e+01 6.8955521725769575e+00 -1 4 0
2842 444 2 -8.2999999999999996e-01 2.6967778864376220e+00 1.7458031066688854e+01 7.9400037180723011e+00 -4 -3 0
565 444 2 -8.2999999999999996e-01 3.2118312405675864e+00 1.9821939260983228e+01 6.4677070832557613e+00 -1 4 0
2844 444 1 4.1499999999999998e-01 2.2959795953505893e+00 1.8013253765503134e+01 8.6088238282291538e+00 -4 -3 0
2407 444 2 -8.2999999999999996e-01 3.7934570783865627e+00 1.8141408164191748e+01 1.1560193692148008e+01 -3 -1 0
452 444 1 4.1499999999999998e-01 3.4356864052548808e+00 1.7082838234042129e+01 1.4664829808623521e+01 1 -1 0
2274 444 1 4.1499999999999998e-01 2.5007932168889608e+00 1.8575205127649948e+01 1.0494944751406077e+01 2 -3 0
2409 444 1 4.1499999999999998e-01 3.5594412988801922e+00 1.8557690608934763e+01 1.2389758433030874e+01 -3 -1 0
2843 444 1 4.1499999999999998e-01 3.5515764955859326e+00 1.7224968772935657e+01 8.3022648781204840e+00 -4 -3 0
2588 444 1 4.1499999999999998e-01 2.7418183802847844e+00 2.0269916438047709e+01 1.5628494995088060e+01 -2 4 0
2273 444 1 4.1499999999999998e-01 2.1180793410297563e+00 1.9970736575790990e+01 1.0050065820900768e+01 2 -3 0
560 444 1 4.1499999999999998e-01 3.5067504437262120e+00 1.8466669255976260e+01 1.8373805498215511e+01 -4 2 0
559 444 2 -8.2999999999999996e-01 3.4082631119030937e+00 1.9135776146419740e+01 1.9051173986162425e+01 -4 2 0
561 444 1 4.1499999999999998e-01 3.6239743343893469e+00 1.9957422764389737e+01 1.8610042086447159e+01 -4 2 0
1805 444 1 4.1499999999999998e-01 2.4457084128379192e+00 1.7627967771192434e+01 1.9647322894391134e+01 -4 5 0
3130 444 4 0.0000000000000000e+00 3.4729999999999999e+00 2.0648199999999999e+01 0.0000000000000000e+00 0 0 0
3131 444 4 0.0000000000000000e+00 3.4521000000000002e+00 2.0648160000000001e+01 3.5965099999999999e+00 0 0 0
3154 444 4 0.0000000000000000e+00 3.4729999999999999e+00 2.2465050000000002e+01 1.8169999999999999e+00 0 0 0
3178 444 4 0.0000000000000000e+00 3.4545900000000000e+00 2.4253589999999999e+01 3.5969500000000001e+00 0 0 0
3179 444 4 0.0000000000000000e+00 3.4729999999999999e+00 2.4282000000000000e+01 0.0000000000000000e+00 0 0 0
468 444 1 4.1499999999999998e-01 2.9017518607905988e+00 2.1715986904196555e+01 6.3091208223142843e+00 9 -3 0
466 444 2 -8.2999999999999996e-01 2.6959360260744138e+00 2.2592232887469244e+01 6.6347965450442166e+00 9 -3 0
26 444 1 4.1499999999999998e-01 2.1217034480678958e+00 2.4389591679482834e+01 6.7872381498407997e+00 -1 4 0
1852 444 2 -8.2999999999999996e-01 2.8121689587860610e+00 2.1495083117014786e+01 9.3452461336066772e+00 -1 2 0
1853 444 1 4.1499999999999998e-01 2.6897702077374506e+00 2.1487027340817423e+01 8.3959382352392655e+00 -1 2 0
599 444 1 4.1499999999999998e-01 3.2064247270684123e+00 2.2985410737563182e+01 1.5838501635278227e+01 3 0 0
1854 444 1 4.1499999999999998e-01 3.7618630869109961e+00 2.1491035589250231e+01 9.4648142719527417e+00 -1 2 0
598 444 2 -8.2999999999999996e-01 3.2076156556848039e+00 2.3942602597904859e+01 1.5842349354173729e+01 3 0 0
749 444 1 4.1499999999999998e-01 2.9830390151666619e+00 2.4055398614518236e+01 1.4188153937209190e+01 2 5 0
748 444 2 -8.2999999999999996e-01 2.8156486795538100e+00 2.4014933052492808e+01 1.3246572883169318e+01 2 5 0
2996 444 1 4.1499999999999998e-01 3.4906466303798913e+00 2.1192948202762953e+01 1.2771034579641059e+01 -4 0 0
392 444 1 4.1499999999999998e-01 2.2775664291782398e+00 2.2611883356850942e+01 1.2482726859096404e+01 4 0 0
2587 444 2 -8.2999999999999996e-01 3.2658513206290798e+00 2.1068087303029021e+01 1.5695911864229203e+01 -2 4 0
393 444 1 4.1499999999999998e-01 2.2551065849725074e+00 2.2035528813571265e+01 1.1083010389103539e+01 4 0 0
2589 444 1 4.1499999999999998e-01 3.7797326025783566e+00 2.0951015961126302e+01 1.6494945210579129e+01 -2 4 0
1187 444 1 4.1499999999999998e-01 4.0317980571122298e+00 2.3819626080367481e+01 1.9789072836376281e+01 2 1 0
1186 444 2 -8.2999999999999996e-01 3.8224566351090528e+00 2.4299615819553534e+01 1.8987812468340650e+01 2 1 0
600 444 1 4.1499999999999998e-01 4.0364797637644356e+00 2.4179888683183652e+01 1.6258175873802521e+01 3 0 0
3168 444 4 0.0000000000000000e+00 3.4729999999999999e+00 2.7915800000000001e+01 0.0000000000000000e+00 0 0 0
3169 444 4 0.0000000000000000e+00 3.4770799999999999e+00 2.7923030000000001e+01 3.5940200000000000e+00 0 0 0
3172 444 4 0.0000000000000000e+00 3.4729999999999999e+00 2.6098949999999999e+01 1.8169999999999999e+00 0 0 0
2297 444 1 4.1499999999999998e-01 3.6405321730681357e+00 2.5734605631714970e+01 6.7877798839055812e+00 -2 -1 0
251 444 1 4.1499999999999998e-01 2.4135165051658314e+00 2.8210755131055659e+01 7.7245913049071531e+00 -3 -4 0
25 444 2 -8.2999999999999996e-01 2.1015852956207426e+00 2.5320325130323578e+01 7.0098652981601708e+00 -1 4 0
750 444 1 4.1499999999999998e-01 2.3160650431163501e+00 2.4809173719453430e+01 1.3057285241157599e+01 2 5 0
2259 444 1 4.1499999999999998e-01 3.7810601726633348e+00 2.8081001168077904e+01 9.4447855781217456e+00 1 5 0
374 444 1 4.1499999999999998e-01 3.5283898040521051e+00 2.7427330164922253e+01 1.2483523887734771e+01 0 -3 0
2598 444 1 4.1499999999999998e-01 3.9579563428996254e+00 2.5541119694887950e+01 8.9436173714888128e+00 -4 2 0
1026 444 1 4.1499999999999998e-01 2.0939326492553261e+00 2.4906431685782586e+01 9.8736872028096165e+00 3 0 0
2915 444 1 4.1499999999999998e-01 3.9092683111541366e+00 2.7495138419047272e+01 1.9499296105481751e+01 0 1 0
3188 444 4 0.0000000000000000e+00 3.4729999999999999e+00 3.1549700000000001e+01 0.0000000000000000e+00 0 0 0
3189 444 4 0.0000000000000000e+00 3.4521000000000002e+00 3.1549659999999999e+01 3.5965099999999999e+00 0 0 0
3192 444 4 0.0000000000000000e+00 3.4729999999999999e+00 2.9732749999999999e+01 1.8169999999999999e+00 0 0 0
2673 444 1 4.1499999999999998e-01 3.5385611113166502e+00 2.9758058000395327e+01 6.6091244157236133e+00 1 2 0
2905 444 2 -8.2999999999999996e-01 2.9520389356553656e+00 3.2251362618485111e+01 7.0329482909769920e+00 -3 1 0
2906 444 1 4.1499999999999998e-01 3.8435967545492065e+00 3.2533998536760862e+01 6.8292979928733635e+00 -3 1 0
2671 444 2 -8.2999999999999996e-01 3.8417188007993932e+00 2.8850137959133594e+01 6.6120339625568505e+00 1 2 0
410 444 1 4.1499999999999998e-01 2.2515438537551229e+00 3.0512453783598996e+01 1.3293796663699345e+01 -3 5 0
2120 444 1 4.1499999999999998e-01 3.6510217569373018e+00 2.9958274635129520e+01 1.5217271388185237e+01 4 -2 0
2119 444 2 -8.2999999999999996e-01 3.1991684629855741e+00 2.9180611377895499e+01 1.5544838731205715e+01 4 -2 0