LAMMPS data file via write_data, version 11 Aug 2017, timestep = 1000000

3531 atoms
10 atom types
2024 bonds
5 bond types
1018 angles
5 angle types
12 dihedrals
4 dihedral types
9 impropers
1 improper types

0.0000000000000000e+00 3.2704500000000003e+01 xlo xhi
0.0000000000000000e+00 3.2704500000000003e+01 ylo yhi
0.0000000000000000e+00 8.0000000000000000e+01 zlo zhi

Masses

1 1.0079
2 15.9994
3 39.0983
4 63.546
5 15.9994
6 12.011
7 15.9994
8 15.9994
9 15.9994
10 1.0079

Bond Coeffs # harmonic

1 450 0.9572
2 570 1.229
3 450 1.364
4 570 1.229
5 553 0.945

Angle Coeffs # harmonic

1 100 123.32
2 85 124
3 55 104.52
4 35 113
5 100 123.32

Dihedral Coeffs # charmm

1 0.922 1 180 0
2 3.741 2 0 0
3 0.922 1 0 0
4 3.741 2 180 0

Improper Coeffs # umbrella

1 21 0

Atoms # full

3049 444 4 0.0000000000000000e+00 1.6665700000000001e+00 6.6303999999999996e-01 3.5779899999999998e+00 0 0 0
3051 444 4 0.0000000000000000e+00 1.6560500000000000e+00 2.4790000000000001e+00 1.8169999999999999e+00 0 0 0
3060 444 4 0.0000000000000000e+00 1.6560500000000000e+00 6.6205000000000003e-01 0.0000000000000000e+00 0 0 0
183 444 1 4.1499999999999998e-01 1.7422762552088769e+00 7.4498613834311433e-01 6.4294837884900442e+00 0 0 0
2058 444 1 4.1499999999999998e-01 1.4529095492202033e+00 2.3600502104998800e+00 1.0829344061443351e+01 0 4 0
2057 444 1 4.1499999999999998e-01 1.6953369706500148e+00 2.4282522539919689e+00 1.2322151006931469e+01 0 4 0
1951 444 2 -8.2999999999999996e-01 5.3598177245590117e-01 2.5374695491853223e+00 9.5288858751077790e+00 -5 -5 0
848 444 2 -8.2999999999999996e-01 8.4935553378868323e-01 1.1801495362220018e+00 1.3714482652425975e+01 -4 1 0
849 444 1 4.1499999999999998e-01 3.4567247476711643e-01 1.3547064355384104e+00 1.4509507901491283e+01 -4 1 0
1953 444 1 4.1499999999999998e-01 2.7965964841270269e-01 1.9319182387749589e+00 8.8333009358076495e+00 -5 -5 0
852 444 1 4.1499999999999998e-01 1.5081696360591459e+00 5.3996825032832885e-01 1.3983487711725818e+01 -4 1 0
281 444 1 4.1499999999999998e-01 8.1001813978063286e-01 6.8316935068183593e-02 1.2002852986403562e+01 3 2 0
433 444 2 -8.2999999999999996e-01 1.9504894914937390e+00 1.3724053207662232e+00 1.7382258044540173e+01 -1 2 0
434 444 1 4.1499999999999998e-01 1.3841046839789231e+00 1.3385528005074345e+00 1.6611353014898970e+01 -1 2 0
2445 444 1 4.1499999999999998e-01 1.9791161776382529e+00 1.2540091245477589e+00 1.9188260565291607e+01 2 -2 0
3066 444 4 0.0000000000000000e+00 1.6560500000000000e+00 4.2959500000000004e+00 0.0000000000000000e+00 0 0 0
3067 444 4 0.0000000000000000e+00 1.6715800000000001e+00 4.2899700000000003e+00 3.5598200000000002e+00 0 0 0
3069 444 4 0.0000000000000000e+00 1.6560500000000000e+00 6.1128000000000000e+00 1.8169999999999999e+00 0 0 0
3086 444 4 0.0000000000000000e+00 1.6560500000000000e+00 7.9297500000000003e+00 0.0000000000000000e+00 0 0 0
3087 444 4 0.0000000000000000e+00 1.6734300000000000e+00 7.9366199999999996e+00 3.5601600000000002e+00 0 0 0
2889 444 1 4.1499999999999998e-01 9.6818141683576164e-01 7.2831410220324404e+00 6.8287091681389578e+00 2 1 0
2887 444 2 -8.2999999999999996e-01 1.2330758897008787e+00 6.4174982199679205e+00 6.5177015362309332e+00 2 1 0
477 444 1 4.1499999999999998e-01 2.6231301336683877e-01 4.7084791328236451e+00 6.5078774121242642e+00 3 3 0
1184 444 1 4.1499999999999998e-01 7.2910493390335629e-01 6.3614496646020200e+00 1.3662170997418015e+01 5 2 0
1615 444 2 -8.2999999999999996e-01 1.0364367665181987e-01 6.3670042495534442e+00 1.5549479563548045e+01 -1 -3 0
1183 444 2 -8.2999999999999996e-01 1.0457594607853624e+00 6.1115262995015183e+00 1.2794126945790497e+01 5 2 0
1249 444 2 -8.2999999999999996e-01 1.9958602562033352e+00 5.0963539579981258e+00 9.4310084387306716e+00 -5 -4 0
1314 444 1 4.1499999999999998e-01 7.8058801417043622e-01 6.2327329471015389e+00 9.6795025750028163e+00 3 0 0
1312 444 2 -8.2999999999999996e-01 2.3445261666262467e-02 6.8134169344289228e+00 9.7554815034206612e+00 3 0 0
1185 444 1 4.1499999999999998e-01 3.2769754832280323e-01 6.3368907209637415e+00 1.2202662706872708e+01 5 2 0
1250 444 1 4.1499999999999998e-01 1.5327350846070666e+00 4.2865639278429217e+00 9.6454543378741580e+00 -5 -4 0
1617 444 1 4.1499999999999998e-01 5.9388875376743311e-01 6.0312581602504327e+00 1.6299923726895916e+01 -1 -3 0
3089 444 4 0.0000000000000000e+00 1.6560500000000000e+00 9.7467000000000006e+00 1.8169999999999999e+00 0 0 0
3104 444 4 0.0000000000000000e+00 1.6665700000000001e+00 1.1564539999999999e+01 3.5779999999999998e+00 0 0 0
3115 444 4 0.0000000000000000e+00 1.6560500000000000e+00 1.1563549999999999e+01 0.0000000000000000e+00 0 0 0
2657 444 1 4.1499999999999998e-01 1.9788404907257864e+00 1.1409495889503164e+01 6.9541741539759148e+00 1 3 0
2207 444 1 4.1499999999999998e-01 5.8890944732501804e-01 9.2188366632129437e+00 7.3441536451051563e+00 7 2 0
1900 444 2 -8.2999999999999996e-01 1.5090589432388649e-01 1.1878381220259504e+01 7.1300316763088025e+00 0 2 0
2107 444 2 -8.2999999999999996e-01 4.6261285768614080e-01 9.9293754073835601e+00 1.1673798973533692e+01 1 -4 0
2108 444 1 4.1499999999999998e-01 1.4174533165560049e-01 1.0714931857132777e+01 1.2116717655422519e+01 1 -4 0
2109 444 1 4.1499999999999998e-01 1.3487806999679237e+00 1.0157353410490233e+01 1.1392792871201234e+01 1 -4 0
2208 444 1 4.1499999999999998e-01 1.5774189184603596e-01 8.5558916104754452e+00 8.6350812312381144e+00 7 2 0
90 444 1 4.1499999999999998e-01 1.6531298624290411e+00 1.0420301639495639e+01 1.8525579994746479e+01 0 3 0
88 444 2 -8.2999999999999996e-01 8.1521616332767466e-01 1.0867094802582413e+01 1.8405125444926195e+01 0 3 0
89 444 1 4.1499999999999998e-01 9.5019509661605295e-01 1.1736204034464423e+01 1.8782832476872301e+01 0 3 0
3106 444 4 0.0000000000000000e+00 1.6560500000000000e+00 1.3380500000000000e+01 1.8169999999999999e+00 0 0 0
3121 444 4 0.0000000000000000e+00 1.6560500000000000e+00 1.5197450000000000e+01 0.0000000000000000e+00 0 0 0
3122 444 4 0.0000000000000000e+00 1.6715800000000001e+00 1.5191470000000001e+01 3.5598200000000002e+00 0 0 0
1310 444 1 4.1499999999999998e-01 1.4033671955453035e+00 1.3553877527423611e+01 6.1930526905733165e+00 -1 2 0
1596 444 1 4.1499999999999998e-01 1.2703977622744695e+00 1.6197496224484624e+01 6.3576984941926984e+00 4 1 0
1309 444 2 -8.2999999999999996e-01 1.1029329239184549e+00 1.4453828137835625e+01 6.0663246744867383e+00 -1 2 0
1311 444 1 4.1499999999999998e-01 1.5572257069380255e-01 1.4376762524814838e+01 5.9519337344800816e+00 -1 2 0
1494 444 1 4.1499999999999998e-01 1.5476745021066562e+00 1.3159802023466323e+01 1.0577537875974887e+01 3 -3 0
1492 444 2 -8.2999999999999996e-01 1.0682556042934221e+00 1.3906151029561855e+01 1.0937195340713515e+01 3 -3 0
2621 444 1 4.1499999999999998e-01 8.7293603273255149e-01 1.5402854155813083e+01 1.4726729023322626e+01 0 -5 0
1493 444 1 4.1499999999999998e-01 1.7443486787597442e+00 1.4460364409403139e+01 1.1327039108840202e+01 3 -3 0
677 444 1 4.1499999999999998e-01 1.3855411710363685e-01 1.2808035001669614e+01 1.2110717287282318e+01 -1 3 0
3124 444 4 0.0000000000000000e+00 1.6560500000000000e+00 1.7014299999999999e+01 1.8169999999999999e+00 0 0 0
3141 444 4 0.0000000000000000e+00 1.6560500000000000e+00 1.8831250000000001e+01 0.0000000000000000e+00 0 0 0
3142 444 4 0.0000000000000000e+00 1.6734300000000000e+00 1.8838120000000000e+01 3.5601600000000002e+00 0 0 0
1595 444 1 4.1499999999999998e-01 7.0679206231011327e-01 1.6805409845805944e+01 7.6244600989231364e+00 4 1 0
1594 444 2 -8.2999999999999996e-01 1.4581390479042542e+00 1.6849341384731016e+01 7.0330381678077352e+00 4 1 0
1016 444 1 4.1499999999999998e-01 7.7041551542970521e-01 1.9583427621089420e+01 7.6509767037122689e+00 -1 3 0
1015 444 2 -8.2999999999999996e-01 8.8909124719121890e-01 1.9530396127761556e+01 6.7026436601160944e+00 -1 3 0
1017 444 1 4.1499999999999998e-01 6.3711001095101016e-01 1.8634454020871264e+01 6.4789810018395437e+00 -1 3 0
1861 444 2 -8.2999999999999996e-01 6.7514395726731657e-01 2.0287769431980376e+01 9.3196535987834892e+00 0 0 0
118 444 2 -8.2999999999999996e-01 9.1532567468070514e-01 1.9920160702218062e+01 1.3470500958467968e+01 -5 2 0
1527 444 1 4.1499999999999998e-01 2.9997982732699668e-01 1.8166347048265102e+01 1.1741239005077022e+01 4 3 0
120 444 1 4.1499999999999998e-01 7.0147866252175861e-01 2.0222670392250276e+01 1.4353104815740235e+01 -5 2 0
1526 444 1 4.1499999999999998e-01 7.4943787373723225e-01 1.6781879834744011e+01 1.1325146347320658e+01 4 3 0
1960 444 2 -8.2999999999999996e-01 6.7102030435646254e-01 2.0001732143942551e+01 1.6291354912970430e+01 -1 2 0
1962 444 1 4.1499999999999998e-01 1.2599330395392982e+00 1.9534279893154341e+01 1.6883724756588009e+01 -1 2 0
3144 444 4 0.0000000000000000e+00 1.6560500000000000e+00 2.0648199999999999e+01 1.8169999999999999e+00 0 0 0
3159 444 4 0.0000000000000000e+00 1.6665700000000001e+00 2.2466040000000000e+01 3.5779999999999998e+00 0 0 0
3161 444 4 0.0000000000000000e+00 1.6560500000000000e+00 2.4282000000000000e+01 1.8169999999999999e+00 0 0 0
3170 444 4 0.0000000000000000e+00 1.6560500000000000e+00 2.2465050000000002e+01 0.0000000000000000e+00 0 0 0
1101 444 1 4.1499999999999998e-01 1.1289019989513358e+00 2.1607785649057565e+01 6.4370970788277146e+00 -2 0 0
1099 444 2 -8.2999999999999996e-01 7.5750972003710004e-01 2.2489715147162137e+01 6.4594578411025338e+00 -2 0 0
2505 444 1 4.1499999999999998e-01 7.5311561125897197e-01 2.4174713168236675e+01 6.3295101972799168e+00 -1 -1 0
1725 444 1 4.1499999999999998e-01 5.8811870317386628e-01 2.3352308830443306e+01 1.0714037706251871e+01 -2 -3 0
22 444 2 -8.2999999999999996e-01 1.3668864141930694e+00 2.2654571563924708e+01 1.5772256993520777e+01 4 0 0
1862 444 1 4.1499999999999998e-01 1.3058800103134411e+00 2.0794737199195975e+01 9.8309143739066229e+00 0 0 0
24 444 1 4.1499999999999998e-01 1.0643210022376035e+00 2.1746762444265556e+01 1.5748401583618961e+01 4 0 0
1723 444 2 -8.2999999999999996e-01 4.6747913758368070e-01 2.4299519866099391e+01 1.0647178316510633e+01 -2 -3 0
119 444 1 4.1499999999999998e-01 1.1878629788985910e+00 2.0711015403643206e+01 1.3005200891367570e+01 -5 2 0
23 444 1 4.1499999999999998e-01 5.9661226086706820e-01 2.3157384656857094e+01 1.6036999622553644e+01 4 0 0
631 444 2 -8.2999999999999996e-01 1.2419878270833913e+00 2.2618856627202689e+01 1.9855258715051480e+01 -2 2 0
2880 444 1 4.1499999999999998e-01 6.6794700604101087e-01 2.3974034549344715e+01 1.8752067260264578e+01 -1 1 0
3176 444 4 0.0000000000000000e+00 1.6560500000000000e+00 2.6098949999999999e+01 0.0000000000000000e+00 0 0 0
3177 444 4 0.0000000000000000e+00 1.6715800000000001e+00 2.6092970000000001e+01 3.5598200000000002e+00 0 0 0
3179 444 4 0.0000000000000000e+00 1.6560500000000000e+00 2.7915800000000001e+01 1.8169999999999999e+00 0 0 0
648 444 1 4.1499999999999998e-01 1.6911418888425453e+00 2.8046137507203191e+01 6.4469190506071312e+00 3 0 0
2504 444 1 4.1499999999999998e-01 1.5904156298590904e+00 2.5371277475128533e+01 6.7283315027364594e+00 -1 -1 0
2503 444 2 -8.2999999999999996e-01 7.5776906895607932e-01 2.5131867978823415e+01 6.3213725532060909e+00 -1 -1 0
2428 444 2 -8.2999999999999996e-01 1.7274622027320734e+00 2.5963533687616511e+01 1.3732557118613469e+01 0 1 0
2874 444 1 4.1499999999999998e-01 5.7126116730321996e-01 2.7999093668351783e+01 1.0047617476160006e+01 2 0 0
2430 444 1 4.1499999999999998e-01 1.8925939624215529e+00 2.5898266657191982e+01 1.4673144498926545e+01 0 1 0
2429 444 1 4.1499999999999998e-01 7.8127324714711055e-01 2.5847203729941683e+01 1.3646374869375217e+01 0 1 0
1724 444 1 4.1499999999999998e-01 1.3552190537783397e+00 2.4649934540109719e+01 1.0573967175803535e+01 -2 -3 0
2878 444 2 -8.2999999999999996e-01 4.2361529515614077e-01 2.4797707434210594e+01 1.8330051477473482e+01 -1 1 0
2146 444 2 -8.2999999999999996e-01 1.4964900099413783e+00 2.7677897517776721e+01 1.8716457177727193e+01 3 1 0
2147 444 1 4.1499999999999998e-01 1.1871751592284341e+00 2.6796441869713544e+01 1.8507668896096000e+01 3 1 0
2777 444 1 4.1499999999999998e-01 1.4814033871592063e+00 2.5067265466206610e+01 1.7046061851006492e+01 -3 2 0
2148 444 1 4.1499999999999998e-01 1.6882915505818581e+00 2.8072689297731486e+01 1.7865819705185967e+01 3 1 0
3196 444 4 0.0000000000000000e+00 1.6560500000000000e+00 2.9732749999999999e+01 0.0000000000000000e+00 0 0 0
3197 444 4 0.0000000000000000e+00 1.6734300000000000e+00 2.9739619999999999e+01 3.5601600000000002e+00 0 0 0
3199 444 4 0.0000000000000000e+00 1.6560500000000000e+00 3.1549700000000001e+01 1.8169999999999999e+00 0 0 0
646 444 2 -8.2999999999999996e-01 1.1987095684495093e+00 2.8839844771957015e+01 6.6561359252325794e+00 3 0 0
647 444 1 4.1499999999999998e-01 9.1992812797936574e-01 2.8717107100094790e+01 7.5635766776198201e+00 3 0 0
181 444 2 -8.2999999999999996e-01 1.2522287711303222e+00 3.2668775318867056e+01 6.1714605380023508e+00 0 -1 0
2852 444 1 4.1499999999999998e-01 6.2620142370022128e-02 3.1673626583989282e+01 6.3834472522522887e+00 3 1 0
182 444 1 4.1499999999999998e-01 1.8257493320563885e+00 3.1938126323928035e+01 6.4026706256730153e+00 0 -1 0
2853 444 1 4.1499999999999998e-01 2.4624742877121800e-01 3.0210951613141020e+01 6.7280602512831198e+00 3 1 0
1679 444 1 4.1499999999999998e-01 1.6888095140367625e+00 3.0683730614370521e+01 1.0651203596792751e+01 -1 -1 0
280 444 2 -8.2999999999999996e-01 6.1031398760030309e-01 3.2072128488340503e+01 1.1382058311936246e+01 3 1 0
739 444 2 -8.2999999999999996e-01 1.5808246989845001e+00 3.0311188654633913e+01 1.4028276027179768e+01 2 4 0
741 444 1 4.1499999999999998e-01 1.9089973448519828e+00 3.1210049826200748e+01 1.4052449018564666e+01 2 4 0
2999 444 1 4.1499999999999998e-01 7.1977116953410158e-01 3.0454790164671191e+01 1.9932827144234473e+01 2 2 0
3000 444 1 4.1499999999999998e-01 6.2396284090343390e-01 2.9064771068233931e+01 1.9340743679893496e+01 2 2 0
1470 444 1 4.1499999999999998e-01 3.5354321067070643e-01 3.0917242105572960e+01 1.7710557491661575e+01 2 -1 0
2998 444 2 -8.2999999999999996e-01 9.1694441107778232e-02 2.9822169550792726e+01 1.9584197489016308e+01 2 2 0
3050 444 4 0.0000000000000000e+00 3.4729999999999999e+00 6.6205000000000003e-01 1.8169999999999999e+00 0 0 0
3074 444 4 0.0000000000000000e+00 3.4730599999999998e+00 2.4699700000000000e+00 3.5776300000000001e+00 0 0 0
3075 444 4 0.0000000000000000e+00 3.4729999999999999e+00 2.4790000000000001e+00 0.0000000000000000e+00 0 0 0
1215 444 1 4.1499999999999998e-01 2.9777238658286245e+00 2.5258693856669199e+00 7.8121650843275070e+00 3 0 0
1214 444 1 4.1499999999999998e-01 2.0557695100585174e+00 2.8198187744658108e+00 6.6479102678440443e+00 3 0 0
1213 444 2 -8.2999999999999996e-01 2.4284232180163681e+00 2.0985409076200168e+00 7.1549799913147778e+00 3 0 0
2595 444 1 4.1499999999999998e-01 3.0716897284008438e+00 3.8425225171299462e+00 1.1945295363714887e+01 2 -1 0
2029 444 2 -8.2999999999999996e-01 3.8278615681354604e+00 7.2999780905026868e-01 1.0120536598523316e+01 -2 -1 0
2031 444 1 4.1499999999999998e-01 3.2044262184965140e+00 1.2688721235036196e+00 1.0607542447599458e+01 -2 -1 0
2056 444 2 -8.2999999999999996e-01 2.1438885949148618e+00 2.2896287247580056e+00 1.1487994672842536e+01 0 4 0
382 444 2 -8.2999999999999996e-01 3.9998854417746754e+00 3.7313082279354397e+00 8.5493657802967356e+00 -1 -1 0
649 444 2 -8.2999999999999996e-01 3.9571874006530670e+00 3.1203146401519684e+00 1.6174302539738768e+01 1 2 0
435 444 1 4.1499999999999998e-01 2.2562977515211067e+00 2.2788219933133216e+00 1.7415758570695314e+01 -1 2 0
3064 444 4 0.0000000000000000e+00 3.4729999999999999e+00 6.1128000000000000e+00 0.0000000000000000e+00 0 0 0
3065 444 4 0.0000000000000000e+00 3.4733399999999999e+00 6.1125100000000003e+00 3.5750400000000000e+00 0 0 0
3068 444 4 0.0000000000000000e+00 3.4729999999999999e+00 4.2959500000000004e+00 1.8169999999999999e+00 0 0 0
3088 444 4 0.0000000000000000e+00 3.4729999999999999e+00 7.9297500000000003e+00 1.8169999999999999e+00 0 0 0
2888 444 1 4.1499999999999998e-01 2.1723238017623512e+00 6.4990189608441229e+00 6.3521706316582431e+00 2 1 0
1408 444 2 -8.2999999999999996e-01 3.9998610568426627e+00 6.5225048014423628e+00 6.3100540441356392e+00 3 -1 0
1399 444 2 -8.2999999999999996e-01 3.1253916131841031e+00 7.2269268502197965e+00 1.4421835539745826e+01 3 -2 0
2594 444 1 4.1499999999999998e-01 2.3781337811870347e+00 5.1167550600128298e+00 1.2377969346022267e+01 2 -1 0
829 444 2 -8.2999999999999996e-01 2.9907898594180202e+00 7.4182420641068791e+00 1.0627791357730080e+01 1 1 0
1400 444 1 4.1499999999999998e-01 2.6782765424633745e+00 7.2092706757056737e+00 1.3575662524228370e+01 3 -2 0
830 444 1 4.1499999999999998e-01 3.0375980369198308e+00 6.4796664517086473e+00 1.0809772845166226e+01 1 1 0
1401 444 1 4.1499999999999998e-01 3.9574502171405554e+00 7.6656335648492400e+00 1.4244499696671181e+01 3 -2 0
1251 444 1 4.1499999999999998e-01 2.7798582469863278e+00 4.8079022830905229e+00 8.9637027023375175e+00 -5 -4 0
2593 444 2 -8.2999999999999996e-01 3.2443595820153930e+00 4.7466253220268939e+00 1.2208002586713748e+01 2 -1 0
831 444 1 4.1499999999999998e-01 2.2852872487940541e+00 7.5034687353227731e+00 9.9865155609038236e+00 1 1 0
580 444 2 -8.2999999999999996e-01 4.0278959578583615e+00 5.5014210760588309e+00 1.9384528020081756e+01 -2 -3 0
1277 444 1 4.1499999999999998e-01 3.1431595259508884e+00 6.4430649629405714e+00 1.6247085936203778e+01 1 0 0
1276 444 2 -8.2999999999999996e-01 3.2990487370053847e+00 5.6976086184307464e+00 1.6826935739023316e+01 1 0 0
582 444 1 4.1499999999999998e-01 3.6298243994150945e+00 5.4009295720055173e+00 1.8519846814766215e+01 -2 -3 0
1278 444 1 4.1499999999999998e-01 3.2886317203336919e+00 4.9361696431078981e+00 1.6246992192222883e+01 1 0 0
3084 444 4 0.0000000000000000e+00 3.4729999999999999e+00 9.7467000000000006e+00 0.0000000000000000e+00 0 0 0
3085 444 4 0.0000000000000000e+00 3.4732200000000000e+00 9.7576699999999992e+00 3.5781399999999999e+00 0 0 0
3105 444 4 0.0000000000000000e+00 3.4729999999999999e+00 1.1563549999999999e+01 1.8169999999999999e+00 0 0 0
1993 444 2 -8.2999999999999996e-01 2.1127457075199181e+00 8.8635908146453470e+00 6.6599775266500423e+00 2 0 0
1995 444 1 4.1499999999999998e-01 2.4374088718711033e+00 9.7640403041353139e+00 6.6641547081692512e+00 2 0 0
2656 444 2 -8.2999999999999996e-01 2.9332020988313223e+00 1.1414353669090437e+01 6.8806747256110894e+00 1 3 0
1994 444 1 4.1499999999999998e-01 2.8778820203567501e+00 8.3336409056523717e+00 6.4364785282296451e+00 2 0 0
1903 444 2 -8.2999999999999996e-01 2.5833197112644286e+00 1.1923052144696481e+01 1.1324680179297289e+01 -2 0 0
3038 444 10 3.5999999999999999e-01 2.6432444024514119e+00 1.1333919215042494e+01 1.4105061677236181e+01 2 0 0
1592 444 1 4.1499999999999998e-01 3.4715042702508074e+00 8.8665665534939482e+00 1.0968465702575520e+01 -1 -2 0
3037 444 9 -7.8000000000000003e-01 3.2324352554513744e+00 1.2046738355917029e+01 1.3913195285430925e+01 2 0 0
1905 444 1 4.1499999999999998e-01 3.0154633561511979e+00 1.1083543896842491e+01 1.1167487154949759e+01 -2 0 0
1904 444 1 4.1499999999999998e-01 2.7075044416899909e+00 1.2085516091629653e+01 1.2259782032663166e+01 -2 0 0
1591 444 2 -8.2999999999999996e-01 3.7821552171003128e+00 9.7121988200445859e+00 1.1291937427018679e+01 -1 -2 0
2545 444 2 -8.2999999999999996e-01 3.3661133878905147e+00 1.0313281521142304e+01 1.9397047319942416e+01 -1 -1 0
2547 444 1 4.1499999999999998e-01 3.7172089966665758e+00 9.4434044406699105e+00 1.9206580498699161e+01 -1 -1 0
3123 444 4 0.0000000000000000e+00 3.4729999999999999e+00 1.5197450000000000e+01 1.8169999999999999e+00 0 0 0
3129 444 4 0.0000000000000000e+00 3.4730599999999998e+00 1.3371470000000000e+01 3.5776300000000001e+00 0 0 0
3130 444 4 0.0000000000000000e+00 3.4729999999999999e+00 1.3380500000000000e+01 0.0000000000000000e+00 0 0 0
2892 444 1 4.1499999999999998e-01 2.8517242815006201e+00 1.4242960856332166e+01 6.9784375969171508e+00 -5 4 0
2890 444 2 -8.2999999999999996e-01 3.5888862367787957e+00 1.3831080401095718e+01 7.4291909873723689e+00 -5 4 0
2658 444 1 4.1499999999999998e-01 3.1833783002483091e+00 1.2319999920507206e+01 7.0635643787678273e+00 1 3 0
1787 444 1 4.1499999999999998e-01 2.9244095031594584e+00 1.5075838993452932e+01 1.5083563216480751e+01 -3 1 0
1786 444 2 -8.2999999999999996e-01 2.5018791071542368e+00 1.5934510712027608e+01 1.5063979899417676e+01 -3 1 0
1008 444 1 4.1499999999999998e-01 2.9869564958201149e+00 1.6107311941371897e+01 1.2744305735238427e+01 2 -4 0
542 444 1 4.1499999999999998e-01 3.9336128833136619e+00 1.2885048813303685e+01 1.0454002071428961e+01 1 0 0
3034 444 6 1.0800000000000001e+00 3.9627692158210586e+00 1.2372497166321446e+01 1.4984559468697309e+01 2 0 0
273 444 1 4.1499999999999998e-01 2.8179809276053329e+00 1.2758059571463061e+01 1.9399871595804903e+01 1 0 0
369 444 1 4.1499999999999998e-01 3.8748794865381306e+00 1.4222191708342141e+01 1.6954149718653927e+01 1 0 0
272 444 1 4.1499999999999998e-01 2.5623442686671258e+00 1.4119728092025403e+01 1.8789622548094126e+01 1 0 0
367 444 2 -8.2999999999999996e-01 4.0414038010488760e+00 1.4474779800369419e+01 1.7862280678485760e+01 1 0 0
271 444 2 -8.2999999999999996e-01 2.1232222882262719e+00 1.3395806064694282e+01 1.9236098319034088e+01 1 0 0
3119 444 4 0.0000000000000000e+00 3.4729999999999999e+00 1.7014299999999999e+01 0.0000000000000000e+00 0 0 0
3120 444 4 0.0000000000000000e+00 3.4733399999999999e+00 1.7014009999999999e+01 3.5750400000000000e+00 0 0 0
3143 444 4 0.0000000000000000e+00 3.4729999999999999e+00 1.8831250000000001e+01 1.8169999999999999e+00 0 0 0
474 444 1 4.1499999999999998e-01 3.6165662606991553e+00 1.7967295884120595e+01 7.3055120726530678e+00 1 1 0
472 444 2 -8.2999999999999996e-01 3.6954387101622417e+00 1.8900870810800129e+01 7.1094266290552435e+00 1 1 0
473 444 1 4.1499999999999998e-01 2.9563148309170875e+00 1.9087810325370373e+01 6.5306503918528023e+00 1 1 0
1572 444 1 4.1499999999999998e-01 2.5909206879096338e+00 1.9884183521474977e+01 1.4257163753723173e+01 2 2 0
1883 444 1 4.1499999999999998e-01 3.7460545514970538e+00 2.0088399022256723e+01 8.7337360978938694e+00 5 0 0
1007 444 1 4.1499999999999998e-01 3.1044288949890229e+00 1.6858999671116248e+01 1.1435466030904447e+01 2 -4 0
1570 444 2 -8.2999999999999996e-01 3.3616218470001535e+00 1.9802789320542360e+01 1.4818970518339903e+01 2 2 0
1571 444 1 4.1499999999999998e-01 3.9593043612753731e+00 1.9240272308565704e+01 1.4326443950463732e+01 2 2 0
1882 444 2 -8.2999999999999996e-01 3.8252465432393441e+00 2.0353586881835216e+01 9.6500528663259200e+00 5 0 0
660 444 1 4.1499999999999998e-01 3.9625185043464222e+00 1.8653902518395828e+01 1.0270999246763836e+01 1 -2 0
1788 444 1 4.1499999999999998e-01 3.0442736147798097e+00 1.6481882985477359e+01 1.5631804305841486e+01 -3 1 0
1006 444 2 -8.2999999999999996e-01 2.4709405008290384e+00 1.6414825673731102e+01 1.1999057282114654e+01 2 -4 0
1517 444 1 4.1499999999999998e-01 3.5131816115648409e+00 1.8184170827551185e+01 1.6759984764745390e+01 2 1 0
1005 444 1 4.1499999999999998e-01 2.9820507445104538e+00 1.9777238478972595e+01 1.8784527017702892e+01 1 1 0
1003 444 2 -8.2999999999999996e-01 2.3811352027772190e+00 1.9132442463570605e+01 1.8411203351725355e+01 1 1 0
1004 444 1 4.1499999999999998e-01 2.2117501177422225e+00 1.8519713401282583e+01 1.9126817688827888e+01 1 1 0
3139 444 4 0.0000000000000000e+00 3.4729999999999999e+00 2.0648199999999999e+01 0.0000000000000000e+00 0 0 0
3140 444 4 0.0000000000000000e+00 3.4732200000000000e+00 2.0659170000000000e+01 3.5781399999999999e+00 0 0 0
3160 444 4 0.0000000000000000e+00 3.4729999999999999e+00 2.2465050000000002e+01 1.8169999999999999e+00 0 0 0
3184 444 4 0.0000000000000000e+00 3.4730599999999998e+00 2.4272970000000001e+01 3.5776300000000001e+00 0 0 0
3185 444 4 0.0000000000000000e+00 3.4729999999999999e+00 2.4282000000000000e+01 0.0000000000000000e+00 0 0 0
157 444 2 -8.2999999999999996e-01 3.3357162666671347e+00 2.3591073829265735e+01 6.3525671571761206e+00 -2 -3 0
158 444 1 4.1499999999999998e-01 2.5160348264547254e+00 2.3395388298891344e+01 5.8986271894017346e+00 -2 -3 0
159 444 1 4.1499999999999998e-01 3.6055134990124067e+00 2.2754719765863094e+01 6.7319789369960024e+00 -2 -3 0
810 444 1 4.1499999999999998e-01 3.8416032688069355e+00 2.3443632905910427e+01 1.3451801937721887e+01 2 -1 0
809 444 1 4.1499999999999998e-01 2.4442311932801997e+00 2.4024358813290050e+01 1.3496572736953880e+01 2 -1 0
808 444 2 -8.2999999999999996e-01 2.9204504751175442e+00 2.3209101721805958e+01 1.3339081901184766e+01 2 -1 0
2243 444 1 4.1499999999999998e-01 2.4995569829779458e+00 2.2221884133460858e+01 1.1802087694426691e+01 0 -2 0
2244 444 1 4.1499999999999998e-01 2.9084117673825443e+00 2.1771623643890280e+01 1.0415725895216804e+01 0 -2 0
2242 444 2 -8.2999999999999996e-01 2.1472591360538962e+00 2.2038401281632574e+01 1.0931195645353796e+01 0 -2 0
2356 444 2 -8.2999999999999996e-01 3.7658059370704726e+00 2.1796288338380556e+01 1.8419617737507352e+01 -2 4 0
2357 444 1 4.1499999999999998e-01 3.0981235390916950e+00 2.2076357129983904e+01 1.9045711746231714e+01 -2 4 0
3174 444 4 0.0000000000000000e+00 3.4729999999999999e+00 2.7915800000000001e+01 0.0000000000000000e+00 0 0 0
3175 444 4 0.0000000000000000e+00 3.4733399999999999e+00 2.7915510000000001e+01 3.5750400000000000e+00 0 0 0
3178 444 4 0.0000000000000000e+00 3.4729999999999999e+00 2.6098949999999999e+01 1.8169999999999999e+00 0 0 0
2757 444 1 4.1499999999999998e-01 3.2173459214746170e+00 2.6229174341051639e+01 7.6838511712290600e+00 3 -1 0
2756 444 1 4.1499999999999998e-01 3.5342253844074598e+00 2.5309311853222852e+01 6.5239651546347242e+00 3 -1 0
2755 444 2 -8.2999999999999996e-01 3.1594752784206941e+00 2.6165540716068993e+01 6.7305235266792192e+00 3 -1 0
2913 444 1 4.1499999999999998e-01 3.8552473909976857e+00 2.8069772457680020e+01 7.2273468158998311e+00 1 1 0
1827 444 1 4.1499999999999998e-01 2.8013494601289826e+00 2.6473117510355216e+01 1.2467696815490260e+01 3 -3 0
2464 444 2 -8.2999999999999996e-01 3.5693776132588604e+00 2.5515933329520454e+01 9.2758117002710616e+00 0 2 0
1290 444 1 4.1499999999999998e-01 2.8347161200258340e+00 2.7269672932573151e+01 9.2978181881341300e+00 -3 -5 0
1825 444 2 -8.2999999999999996e-01 3.5065888875077547e+00 2.6539806304726287e+01 1.1823940798645383e+01 3 -3 0
1288 444 2 -8.2999999999999996e-01 2.0696288994258234e+00 2.7833930843803223e+01 9.1860735172234822e+00 -3 -5 0
2466 444 1 4.1499999999999998e-01 3.6353916881662527e+00 2.5749341582930708e+01 1.0201767729956336e+01 0 2 0
248 444 1 4.1499999999999998e-01 3.5860234554699448e+00 2.8315848221532583e+01 1.2066884551902959e+01 -1 -1 0
2778 444 1 4.1499999999999998e-01 2.9706287263576132e+00 2.5255878084197061e+01 1.6849773319775512e+01 -3 2 0
2776 444 2 -8.2999999999999996e-01 2.1216477250903507e+00 2.5499649311282340e+01 1.6480938311931791e+01 -3 2 0
3194 444 4 0.0000000000000000e+00 3.4729999999999999e+00 3.1549700000000001e+01 0.0000000000000000e+00 0 0 0
3195 444 4 0.0000000000000000e+00 3.4732200000000000e+00 3.1560669999999998e+01 3.5781399999999999e+00 0 0 0
3198 444 4 0.0000000000000000e+00 3.4729999999999999e+00 2.9732749999999999e+01 1.8169999999999999e+00 0 0 0
853 444 2 -8.2999999999999996e-01 3.0376851189767553e+00 3.1059193996222501e+01 7.5468511361510346e+00 -1 0 0
854 444 1 4.1499999999999998e-01 3.1673243544930236e+00 3.0231861366589367e+01 7.0832275229492865e+00 -1 0 0
855 444 1 4.1499999999999998e-01 3.1005531399355641e+00 3.0827454330112044e+01 8.4734455081297462e+00 -1 0 0
247 444 2 -8.2999999999999996e-01 3.7488498148505291e+00 2.9233673254584581e+01 1.2284408385406840e+01 -1 -1 0
713 444 1 4.1499999999999998e-01 3.6491502862012259e+00 3.2671564309330854e+01 1.5093664081849052e+01 -1 -2 0
1680 444 1 4.1499999999999998e-01 2.9874683648313431e+00 2.9949096551563827e+01 1.0907510362400675e+01 -1 -1 0
1289 444 1 4.1499999999999998e-01 2.2799649566815545e+00 2.8624622670228408e+01 9.6828613828603896e+00 -3 -5 0
712 444 2 -8.2999999999999996e-01 3.0841791109818377e+00 3.2448002171533908e+01 1.4354028752158236e+01 -1 -2 0
2030 444 1 4.1499999999999998e-01 3.3773870943422728e+00 3.2599069936310812e+01 9.9965815477412292e+00 -2 -2 0
1678 444 2 -8.2999999999999996e-01 2.4317408978243118e+00 3.0280486180629261e+01 1.0202117023356109e+01 -1 -1 0
714 444 1 4.1499999999999998e-01 3.6532092334068405e+00 3.2518302763877287e+01 1.3587546645346254e+01 -1 -2 0
740 444 1 4.1499999999999998e-01 2.3227400258422741e+00 2.9793148765563220e+01 1.3716140023684552e+01 2 4 0
1836 444 1 4.1499999999999998e-01 2.1544128318555682e+00 2.9687739175907243e+01 1.5771709530392535e+01 2 4 0
1475 444 1 4.1499999999999998e-01 2.9623739185911941e+00 3.0699507898274216e+01 1.7658694380753314e+01 0 -2 0
1834 444 2 -8.2999999999999996e-01 2.3546854218589659e+00 2.9303155923472207e+01 1.6625066697216941e+01 2 4 0
2493 444 1 4.1499999999999998e-01 2.6778211283574951e+00 3.0975690517106543e+01 1.9934300234660689e+01 -3 2 0
1476 444 1 4.1499999999999998e-01 2.5951326861808095e+00 3.2168128209675110e+01 1.7672257601167964e+01 0 -2 0
1474 444 2 -8.2999999999999996e-01 2.9595763510308335e+00 3.1473901161970208e+01 1.8221312903017218e+01 0 -2 0
1835 444 1 4.1499999999999998e-01 3.0103051406855785e+00 2.8631390897096455e+01 1.6437646347769370e+01 2 4 0
3054 444 4 0.0000000000000000e+00 5.2898399999999999e+00 6.6205000000000003e-01 0.0000000000000000e+00 0 0 0
3055 444 4 0.0000000000000000e+00 5.2790600000000003e+00 6.6315000000000002e-01 3.5780400000000001e+00 0 0 0
3057 444 4 0.0000000000000000e+00 5.2898399999999999e+00 2.4790000000000001e+00 1.8169999999999999e+00 0 0 0
9 444 1 4.1499999999999998e-01 4.5414259460357700e+00 7.3380161236350228e-01 7.5430747364461785e+00 0 -5 0
383 444 1 4.1499999999999998e-01 4.6616592330129896e+00 3.8810811516183996e+00 7.8741951433124013e+00 -1 -1 0
560 444 1 4.1499999999999998e-01 5.9745593250161653e+00 3.5432185334648123e+00 6.3003767978808014e+00 3 -1 0
7 444 2 -8.2999999999999996e-01 4.9148852061351809e+00 1.4082872850949002e-03 7.0528094769363214e+00 0 -5 0