LAMMPS data file via write_data, version 11 Aug 2017, timestep = 1000000

3468 atoms
11 atom types
2012 bonds
5 bond types
1012 angles
5 angle types
12 dihedrals
4 dihedral types
9 impropers
1 improper types

0.0000000000000000e+00 3.0466200000000001e+01 xlo xhi
0.0000000000000000e+00 3.5179200000000002e+01 ylo yhi
0.0000000000000000e+00 6.5000000000000000e+01 zlo zhi

Masses

1 1.0079
2 15.9994
3 39.0983
4 107.868
5 15.9994
6 12.011
7 12.011
8 15.9994
9 15.9994
10 15.9994
11 1.0079

Bond Coeffs # harmonic

1 450 0.9572
2 570 1.229
3 450 1.364
4 570 1.229
5 553 0.945

Angle Coeffs # harmonic

1 100 123.32
2 85 124
3 55 104.52
4 35 113
5 100 123.32

Dihedral Coeffs # charmm

1 0.922 1 180 0
2 3.741 2 0 0
3 0.922 1 0 0
4 3.741 2 180 0

Improper Coeffs # umbrella

1 21 0

Atoms # full

3019 444 4 0.0000000000000000e+00 1.6907700000000001e+00 0.0000000000000000e+00 0.0000000000000000e+00 0 0 0
3020 444 4 0.0000000000000000e+00 4.2285399999999997e+00 1.4651900000000000e+00 0.0000000000000000e+00 0 0 0
3021 444 4 0.0000000000000000e+00 2.5366599999999999e+00 1.4651900000000000e+00 2.3927499999999999e+00 0 0 0
3022 444 4 0.0000000000000000e+00 5.0744300000000004e+00 0.0000000000000000e+00 2.3927499999999999e+00 0 0 0
3023 444 4 0.0000000000000000e+00 8.2645000000000002e-01 1.4590300000000000e+00 4.7770900000000003e+00 0 0 0
3025 444 4 0.0000000000000000e+00 1.6907700000000001e+00 2.9303699999999999e+00 0.0000000000000000e+00 0 0 0
3026 444 4 0.0000000000000000e+00 4.2285399999999997e+00 4.3955599999999997e+00 0.0000000000000000e+00 0 0 0
3027 444 4 0.0000000000000000e+00 2.5366599999999999e+00 4.3955599999999997e+00 2.3927499999999999e+00 0 0 0
3028 444 4 0.0000000000000000e+00 5.0744300000000004e+00 2.9303699999999999e+00 2.3927499999999999e+00 0 0 0
3029 444 4 0.0000000000000000e+00 7.9771000000000003e-01 4.3771100000000001e+00 4.7525000000000004e+00 0 0 0
3030 444 4 0.0000000000000000e+00 3.3643100000000001e+00 2.8989400000000001e+00 4.7558299999999996e+00 0 0 0
3031 444 4 0.0000000000000000e+00 6.7663200000000003e+00 0.0000000000000000e+00 0.0000000000000000e+00 0 0 0
3033 444 4 0.0000000000000000e+00 7.6122100000000001e+00 1.4651900000000000e+00 2.3927499999999999e+00 0 0 0
3035 444 4 0.0000000000000000e+00 5.9022899999999998e+00 1.4555199999999999e+00 4.7756999999999996e+00 0 0 0
3037 444 4 0.0000000000000000e+00 6.7663200000000003e+00 2.9303699999999999e+00 0.0000000000000000e+00 0 0 0
3039 444 4 0.0000000000000000e+00 7.6122100000000001e+00 4.3955599999999997e+00 2.3927499999999999e+00 0 0 0
3041 444 4 0.0000000000000000e+00 5.9221700000000004e+00 4.3767500000000004e+00 4.7529500000000002e+00 0 0 0
3043 444 4 0.0000000000000000e+00 1.6907700000000001e+00 5.8607500000000003e+00 0.0000000000000000e+00 0 0 0
3046 444 4 0.0000000000000000e+00 5.0744300000000004e+00 5.8607500000000003e+00 2.3927499999999999e+00 0 0 0
3048 444 4 0.0000000000000000e+00 3.3603000000000001e+00 5.8573300000000001e+00 4.7998099999999999e+00 0 0 0
3055 444 4 0.0000000000000000e+00 6.7663200000000003e+00 5.8607500000000003e+00 0.0000000000000000e+00 0 0 0
2624 444 1 4.1499999999999998e-01 5.7952328634769446e+00 3.3216532471522755e+00 7.5073372539397880e+00 1 -1 0
1995 444 1 4.1499999999999998e-01 2.3367582909779747e+00 4.7255840417208671e-02 8.0776982377293525e+00 1 0 0
2259 444 1 4.1499999999999998e-01 3.4031743546690487e+00 6.1483327183946057e-01 1.2460601709459768e+01 0 0 0
2623 444 2 -8.2999999999999996e-01 6.7219827189588974e+00 3.5568244563313849e+00 7.5527405048429621e+00 1 -1 0
935 444 1 4.1499999999999998e-01 1.4538089375950800e+00 2.6852780562928980e-01 1.0785044796056606e+01 0 0 0
317 444 1 4.1499999999999998e-01 8.4503359065729367e-01 4.6048716399334131e+00 1.8800427512663081e+01 1 1 0
44 444 1 4.1499999999999998e-01 1.5254729599072506e-01 3.7654809544922210e+00 2.5501919317397373e+01 0 2 0
1993 444 2 -8.2999999999999996e-01 3.1884419572840272e+00 3.3911712997536519e-01 8.4027886018561642e+00 1 0 0
2562 444 1 4.1499999999999998e-01 3.8388522793197803e+00 1.8846136155396329e+00 8.3018358949196696e+00 -1 0 0
2560 444 2 -8.2999999999999996e-01 4.1630738799566060e+00 2.7754726901194773e+00 8.1696151517784124e+00 -1 0 0
2464 444 2 -8.2999999999999996e-01 3.0162580508683767e-01 1.4498926981336491e+00 2.3904954545993654e+01 0 0 0
105 444 1 4.1499999999999998e-01 6.1581713863781093e+00 5.8362531779785574e+00 2.3298345581355559e+01 2 1 0
2561 444 1 4.1499999999999998e-01 3.4512842414922207e+00 3.2247325604014359e+00 7.7138160794554462e+00 -1 0 0
2466 444 1 4.1499999999999998e-01 1.6106360286531435e-01 1.8118605956810445e+00 2.4779856902676361e+01 0 0 0
2460 444 1 4.1499999999999998e-01 5.4491961599229306e+00 4.6450426425234923e+00 1.1193121460421533e+01 -1 1 0
2459 444 1 4.1499999999999998e-01 6.3521705255229355e+00 3.5237918191544546e+00 1.0724795507896165e+01 -1 1 0
2458 444 2 -8.2999999999999996e-01 6.3029022763857920e+00 4.4772106186265859e+00 1.0794058870266296e+01 -1 1 0
1940 444 1 4.1499999999999998e-01 3.3998261078965255e+00 4.2684528006373705e+00 1.2049033196155605e+01 1 -1 0
1939 444 2 -8.2999999999999996e-01 4.2559104159274206e+00 4.1793064444683878e+00 1.2467846349007029e+01 1 -1 0
1128 444 1 4.1499999999999998e-01 6.7548956533593385e+00 5.7156632453757465e+00 9.5071260934861854e+00 -1 0 0
1941 444 1 4.1499999999999998e-01 4.0669601365557844e+00 3.7821830238636256e+00 1.3318036689329773e+01 1 -1 0
1788 444 1 4.1499999999999998e-01 1.0034647436412873e+00 5.7054518807079946e+00 9.9008933418660643e+00 0 1 0
1787 444 1 4.1499999999999998e-01 1.2376219015650418e+00 5.6119634863389809e+00 1.1393651145919305e+01 0 1 0
2902 444 2 -8.2999999999999996e-01 2.5135658490525281e-01 5.4587721392579578e+00 1.2969395945486429e+01 0 1 0
1301 444 1 4.1499999999999998e-01 5.3099837930181115e+00 1.6300047260528201e+00 9.9186595045593382e+00 1 1 0
414 444 1 4.1499999999999998e-01 4.5159556742685538e+00 2.6208882041551620e+00 1.5462844097371619e+01 0 1 0
412 444 2 -8.2999999999999996e-01 3.9600935451324908e+00 2.8631256360430197e+00 1.4722188154083716e+01 0 1 0
2904 444 1 4.1499999999999998e-01 8.0388721743252389e-01 5.1209443432281248e+00 1.3674247228223505e+01 0 1 0
413 444 1 4.1499999999999998e-01 3.7625736551486022e+00 2.0328638490574131e+00 1.4288732305512642e+01 0 1 0
191 444 1 4.1499999999999998e-01 6.0009661412449686e+00 1.2573104756849385e+00 3.3977152273551809e+01 -1 1 0
151 444 2 -8.2999999999999996e-01 7.0382227759822875e+00 2.7249753032033159e+00 2.4998057444308589e+01 -1 0 0
547 444 2 -8.2999999999999996e-01 6.1937979600756563e+00 2.4950462509070563e+00 2.9992841532028983e+01 0 1 0
190 444 2 -8.2999999999999996e-01 6.7915924757315018e+00 7.2503913290592192e-01 3.4065638106605547e+01 -1 1 0
936 444 1 4.1499999999999998e-01 2.7326191529754906e+00 8.8567032274824242e-01 1.0259997346804605e+01 0 0 0
1383 444 1 4.1499999999999998e-01 6.5247720924746462e+00 4.7155232959704305e+00 1.6771862848619108e+01 -1 1 0
1442 444 1 4.1499999999999998e-01 3.0253915062127401e+00 2.7279369471898134e+00 3.4346892062298217e+01 1 0 0
1300 444 2 -8.2999999999999996e-01 6.2341478258470868e+00 1.4167284714491701e+00 1.0047756357814782e+01 1 1 0
1718 444 1 4.1499999999999998e-01 8.5040227458075268e-01 5.0683830025596057e+00 3.2954557057925932e+01 2 -1 0
1902 444 1 4.1499999999999998e-01 4.7352988615416090e+00 5.8378725679249470e+00 1.3903498897533225e+01 0 0 0
153 444 1 4.1499999999999998e-01 6.4008979497509442e+00 3.4094413533646435e+00 2.4794206268222407e+01 -1 0 0
573 444 1 4.1499999999999998e-01 5.4451191868879025e+00 8.3880960004780059e-01 1.3750371499681538e+01 0 1 0
1302 444 1 4.1499999999999998e-01 6.4580448530506116e+00 8.5891549354090369e-01 9.3028086047525083e+00 1 1 0
1474 444 2 -8.2999999999999996e-01 4.2572561951320704e+00 8.3268368704695184e-01 2.0094139493346734e+01 1 1 0
572 444 1 4.1499999999999998e-01 6.8113010694889997e+00 1.0694951137281741e+00 1.3140267443975469e+01 0 1 0
1443 444 1 4.1499999999999998e-01 2.3361450330069409e+00 2.8024115633109377e+00 3.5692733028662893e+01 1 0 0
1475 444 1 4.1499999999999998e-01 3.4021411533144250e+00 1.1669438923886586e+00 2.0364843874827258e+01 1 1 0
2574 444 1 4.1499999999999998e-01 7.1997991829417929e+00 5.0502704861292145e+00 2.6680286817557732e+01 -1 -1 0
1432 444 2 -8.2999999999999996e-01 2.6571500336853036e+00 1.8712184889384844e+00 1.7997058949675459e+01 1 0 0
1382 444 1 4.1499999999999998e-01 6.3281602558895163e+00 3.3725099751092169e+00 1.6101374753429617e+01 -1 1 0
1476 444 1 4.1499999999999998e-01 4.8645907809447984e+00 1.5488904538830974e+00 2.0279678285627416e+01 1 1 0
1945 444 2 -8.2999999999999996e-01 2.1358381178230692e+00 2.3817679130197531e+00 2.0891547035238304e+01 -2 1 0
1928 444 1 4.1499999999999998e-01 5.9622697109952814e+00 1.6890200443162797e+00 1.7711390149648985e+01 1 0 0
1927 444 2 -8.2999999999999996e-01 5.3535619422930498e+00 1.9643151228343501e+00 1.7025883067954510e+01 1 0 0
762 444 1 4.1499999999999998e-01 2.4964687476218921e+00 3.8572967710486501e+00 1.4993218671647879e+01 -1 1 0
2829 444 1 4.1499999999999998e-01 3.8957847452596641e+00 4.4848614383063667e+00 2.2981906151199532e+01 0 1 0
1734 444 1 4.1499999999999998e-01 7.1078908204743323e+00 4.0503778284228327e+00 2.2478667276971965e+01 0 0 0
1817 444 1 4.1499999999999998e-01 1.3498696596114459e+00 4.9622115268982459e+00 2.3836066269574737e+01 -1 0 0
1732 444 2 -8.2999999999999996e-01 7.0399380874199711e+00 3.5298760415521877e+00 2.1678234182533185e+01 0 0 0
1946 444 1 4.1499999999999998e-01 2.1872156866512316e+00 2.2390930713422939e+00 2.1836658844019414e+01 -2 1 0
2828 444 1 4.1499999999999998e-01 3.7350450830811641e+00 3.9403395695930334e+00 2.4385314114918589e+01 0 1 0
2827 444 2 -8.2999999999999996e-01 3.7767289644241204e+00 4.7590980616361191e+00 2.3891220086181107e+01 0 1 0
548 444 1 4.1499999999999998e-01 6.9082362173421927e+00 2.1344868287927534e+00 3.0518014866691516e+01 0 1 0
321 444 1 4.1499999999999998e-01 1.3152521609287321e-01 3.0380451077935455e-01 1.9631946945879367e+01 0 2 0
1947 444 1 4.1499999999999998e-01 1.2209397336213974e+00 2.2060870480355397e+00 2.0671705173764934e+01 -2 1 0
1759 444 2 -8.2999999999999996e-01 7.1999149966814224e+00 1.7948002135199517e+00 1.9353282841312360e+01 0 0 0
471 444 1 4.1499999999999998e-01 1.0531872455199622e+00 2.5972519932272960e-02 3.3316759169474956e+01 -1 3 0
1929 444 1 4.1499999999999998e-01 4.4926832855603358e+00 1.6970227772091331e+00 1.7347869875884342e+01 1 0 0
760 444 2 -8.2999999999999996e-01 1.6669187165269073e+00 4.3334907692423448e+00 1.5029520986508732e+01 -1 1 0
1733 444 1 4.1499999999999998e-01 6.1161473992114823e+00 3.5851617108723017e+00 2.1433720148674077e+01 0 0 0
1434 444 1 4.1499999999999998e-01 2.0812612066705465e+00 1.8088705897956912e+00 1.8759093801062985e+01 1 0 0
1855 444 2 -8.2999999999999996e-01 6.9668360111871932e+00 5.4468798027387368e+00 3.4667839315459702e+01 0 0 0
103 444 2 -8.2999999999999996e-01 6.9592305074942926e+00 5.4254191152367479e+00 2.3623539697945983e+01 2 1 0
761 444 1 4.1499999999999998e-01 1.0028673952083054e+00 3.6514354363388719e+00 1.5129861149677330e+01 -1 1 0
2783 444 1 4.1499999999999998e-01 5.0251053774369510e+00 4.8332921836288083e+00 2.0295104871895443e+01 1 -1 0
1433 444 1 4.1499999999999998e-01 2.2284926365832844e+00 1.3375145828927022e+00 1.7327995737895456e+01 1 0 0
1816 444 2 -8.2999999999999996e-01 6.6980970329445244e-01 5.0237666591483618e+00 2.4506857793318844e+01 -1 0 0
1441 444 2 -8.2999999999999996e-01 2.1699188369680962e+00 2.8691093200432713e+00 3.4752439408124296e+01 1 0 0
622 444 2 -8.2999999999999996e-01 2.0870445530735315e-01 1.6840581076516881e+00 1.4690224933041431e+01 0 1 0
43 444 2 -8.2999999999999996e-01 2.8471824401791879e-01 3.0470630335973934e+00 2.6120497053137825e+01 0 2 0
1719 444 1 4.1499999999999998e-01 1.8030388013966474e+00 4.5863286184927121e+00 3.4027870861053124e+01 2 -1 0
2304 444 1 4.1499999999999998e-01 4.5583389429848005e+00 2.6838668385853119e+00 3.2827489648350905e+01 2 2 0
571 444 2 -8.2999999999999996e-01 6.3777875928181009e+00 6.8717792439663261e-01 1.3903243230555278e+01 0 1 0
1356 444 1 4.1499999999999998e-01 5.7725024179522244e-01 2.2495997749863315e+00 3.4703090066967285e+01 0 1 0
1381 444 2 -8.2999999999999996e-01 6.2988849350274938e+00 4.3142750598117292e+00 1.5932692562593177e+01 -1 1 0
1857 444 1 4.1499999999999998e-01 6.2949406330565294e+00 4.9051660184571926e+00 3.4253913402508886e+01 0 0 0
2479 444 2 -8.2999999999999996e-01 6.7889933484549836e+00 5.6398376557691972e+00 3.0163989741750104e+01 0 1 0
624 444 1 4.1499999999999998e-01 1.4205337792883768e-01 1.1299056709136217e+00 1.3912597206782523e+01 0 1 0
1779 444 1 4.1499999999999998e-01 3.9204091340745051e+00 2.9156621973167518e-01 2.3427118236733513e+01 1 1 0
2972 444 1 4.1499999999999998e-01 7.0850289539310509e+00 5.6339263063337985e-01 2.5088462306622617e+01 0 1 0
549 444 1 4.1499999999999998e-01 5.7758168514966330e+00 3.1381114020853897e+00 3.0565547278627914e+01 0 1 0
2782 444 2 -8.2999999999999996e-01 4.5930923388919975e+00 4.2803312496398833e+00 2.0946127899131788e+01 1 -1 0
316 444 2 -8.2999999999999996e-01 1.7559030404448461e+00 4.6803544059709603e+00 1.9084772422584852e+01 1 1 0
1905 444 1 4.1499999999999998e-01 3.0987150044518557e+00 1.7690184420186836e+00 2.4919698369161402e+01 0 0 0
2607 444 1 4.1499999999999998e-01 6.9901989105473756e+00 3.5703766311407308e+00 2.8302923805751874e+01 -1 1 0
757 444 2 -8.2999999999999996e-01 5.5954543512516839e+00 4.2098223497483742e+00 3.2048152659731521e+01 1 1 0
759 444 1 4.1499999999999998e-01 6.2593214695258332e+00 4.6779846340183466e+00 3.1541855907826051e+01 1 1 0
758 444 1 4.1499999999999998e-01 4.9716171688197459e+00 4.8869440892232827e+00 3.2310002180630349e+01 1 1 0
2606 444 1 4.1499999999999998e-01 7.1637885139789033e+00 2.6707495379282307e+00 2.7097754437411616e+01 -1 1 0
2465 444 1 4.1499999999999998e-01 1.2245359782866683e+00 1.1961559274181175e+00 2.3895645498747324e+01 0 0 0
1777 444 2 -8.2999999999999996e-01 2.9747423063320291e+00 4.3917907781522109e-01 2.3439656517923616e+01 1 1 0
1903 444 2 -8.2999999999999996e-01 3.6301353176946924e+00 2.5567174701636355e+00 2.5035260073617476e+01 0 0 0
1904 444 1 4.1499999999999998e-01 4.2000325993897771e+00 2.3549895198315896e+00 2.5777388612130764e+01 0 0 0
2257 444 2 -8.2999999999999996e-01 3.7033690422497840e+00 3.2621311361517635e-01 1.3322467935832639e+01 0 0 0
2605 444 2 -8.2999999999999996e-01 7.4895300741997310e+00 3.4802348584745069e+00 2.7491274319985237e+01 -1 1 0
2297 444 1 4.1499999999999998e-01 2.2414389171428031e+00 4.7153118245820176e+00 2.8313187270430721e+01 1 1 0
1410 444 1 4.1499999999999998e-01 3.9702806237037094e+00 1.4509025412277743e+00 2.7940871768788540e+01 1 0 0
1408 444 2 -8.2999999999999996e-01 4.6155539223667610e+00 1.9074827513822916e+00 2.7401066812125904e+01 1 0 0
1127 444 1 4.1499999999999998e-01 6.1662106865399755e+00 5.4683646120092417e+00 8.1344686130452502e+00 -1 0 0
104 444 1 4.1499999999999998e-01 7.0718413163324341e+00 5.7829892502238049e+00 2.4504274758577161e+01 2 1 0
2296 444 2 -8.2999999999999996e-01 1.9682359789266719e+00 4.0734725628815989e+00 2.7657721673742010e+01 1 1 0
1409 444 1 4.1499999999999998e-01 5.3245460496279104e+00 2.1243682912951281e+00 2.8006478426891899e+01 1 0 0
1240 444 2 -8.2999999999999996e-01 2.9291587307588069e+00 5.8159256236425936e+00 2.9589821379060226e+01 0 0 0
2625 444 1 4.1499999999999998e-01 7.1782437697494714e+00 2.7195092800495786e+00 7.6361735975954188e+00 1 -1 0
2298 444 1 4.1499999999999998e-01 2.7360407182011386e+00 3.9610703114777168e+00 2.7097298981538231e+01 1 1 0
934 444 2 -8.2999999999999996e-01 2.2400287581810661e+00 7.3608214315590181e-01 1.1066973341251453e+01 0 0 0
318 444 1 4.1499999999999998e-01 2.1652478689810630e+00 3.8639775283951541e+00 1.8798070466282542e+01 1 1 0
2302 444 2 -8.2999999999999996e-01 4.3784856045467562e+00 2.0142352568886377e+00 3.3487397341504071e+01 2 2 0
45 444 1 4.1499999999999998e-01 8.8928718965511389e-01 3.4004269765059343e+00 2.6773078277894751e+01 0 2 0
623 444 1 4.1499999999999998e-01 4.2026914986935504e-01 1.0774345229700493e+00 1.5399788597148140e+01 0 1 0
1901 444 1 4.1499999999999998e-01 5.9739670265783129e+00 5.6740190350108231e+00 1.4758337217486456e+01 0 0 0
2784 444 1 4.1499999999999998e-01 3.7359418050759454e+00 4.0873578550853589e+00 2.0566277410505773e+01 1 -1 0
1717 444 2 -8.2999999999999996e-01 1.5664476541610921e+00 5.3612653506794254e+00 3.3518233460846147e+01 2 -1 0
2303 444 1 4.1499999999999998e-01 3.9921950562096358e+00 1.2898582097323037e+00 3.2995168466933698e+01 2 2 0
1241 444 1 4.1499999999999998e-01 3.2338268887154356e+00 5.8150047144272250e+00 3.0497239871192772e+01 0 0 0
1187 444 1 4.1499999999999998e-01 2.3955270788660186e+00 5.7802671008266326e+00 1.6334324708386863e+01 1 1 0
3044 444 4 0.0000000000000000e+00 4.2285399999999997e+00 7.3259400000000001e+00 0.0000000000000000e+00 0 0 0
3045 444 4 0.0000000000000000e+00 2.5366599999999999e+00 7.3259400000000001e+00 2.3927499999999999e+00 0 0 0
3047 444 4 0.0000000000000000e+00 7.9723999999999995e-01 7.3399900000000002e+00 4.7518500000000001e+00 0 0 0
3049 444 4 0.0000000000000000e+00 1.6907700000000001e+00 8.7911300000000008e+00 0.0000000000000000e+00 0 0 0
3050 444 4 0.0000000000000000e+00 4.2285399999999997e+00 1.0256309999999999e+01 0.0000000000000000e+00 0 0 0
3051 444 4 0.0000000000000000e+00 2.5366599999999999e+00 1.0256309999999999e+01 2.3927499999999999e+00 0 0 0
3052 444 4 0.0000000000000000e+00 5.0744300000000004e+00 8.7911300000000008e+00 2.3927499999999999e+00 0 0 0
3053 444 4 0.0000000000000000e+00 8.2594000000000001e-01 1.0258699999999999e+01 4.7770999999999999e+00 0 0 0
3054 444 4 0.0000000000000000e+00 3.3641700000000001e+00 8.8168000000000006e+00 4.7547199999999998e+00 0 0 0
3057 444 4 0.0000000000000000e+00 7.6122100000000001e+00 7.3259400000000001e+00 2.3927499999999999e+00 0 0 0
3059 444 4 0.0000000000000000e+00 5.9224199999999998e+00 7.3402000000000003e+00 4.7522799999999998e+00 0 0 0
3061 444 4 0.0000000000000000e+00 6.7663200000000003e+00 8.7911300000000008e+00 0.0000000000000000e+00 0 0 0
3063 444 4 0.0000000000000000e+00 7.6122100000000001e+00 1.0256309999999999e+01 2.3927499999999999e+00 0 0 0
3065 444 4 0.0000000000000000e+00 5.9026399999999999e+00 1.0261870000000000e+01 4.7757600000000000e+00 0 0 0
3067 444 6 0.0000000000000000e+00 3.3837500000000000e+00 5.9070700000000000e+00 6.9554900000000002e+00 0 0 0
3068 444 5 0.0000000000000000e+00 3.4398300000000002e+00 5.9620300000000004e+00 8.0962200000000006e+00 0 0 0
3069 444 4 0.0000000000000000e+00 1.6907700000000001e+00 1.1721500000000001e+01 0.0000000000000000e+00 0 0 0
3072 444 4 0.0000000000000000e+00 5.0744300000000004e+00 1.1721500000000001e+01 2.3927499999999999e+00 0 0 0
3074 444 4 0.0000000000000000e+00 3.3639299999999999e+00 1.1719310000000000e+01 4.7775400000000001e+00 0 0 0
3081 444 4 0.0000000000000000e+00 6.7663200000000003e+00 1.1721500000000001e+01 0.0000000000000000e+00 0 0 0
1188 444 1 4.1499999999999998e-01 2.6444070316512667e+00 5.9568099039768221e+00 1.7817155327172411e+01 1 1 0
2706 444 1 4.1499999999999998e-01 2.9506811978164755e+00 9.1259268032368848e+00 8.0292288409016166e+00 2 0 0
2704 444 2 -8.2999999999999996e-01 2.0424919044576817e+00 9.3627346680168397e+00 7.8412206832698086e+00 2 0 0
1455 444 1 4.1499999999999998e-01 6.5843268406107747e-01 7.5328603420568063e+00 3.4886886411650373e+01 -1 1 0
2375 444 1 4.1499999999999998e-01 5.5314990845274838e+00 9.1156147948729611e+00 8.1084195415665548e+00 1 0 0
1856 444 1 4.1499999999999998e-01 7.3167988341145804e+00 5.9814653815150693e+00 3.3955114742107902e+01 0 0 0
1334 444 1 4.1499999999999998e-01 4.8239898012904128e+00 1.1080918847407887e+01 8.0912014935677607e+00 0 1 0
2822 444 1 4.1499999999999998e-01 5.4943065024529658e-01 9.1215347557730926e+00 1.0508244081580891e+01 1 1 0
739 444 2 -8.2999999999999996e-01 6.5684927002322588e+00 8.9437514462581866e+00 3.1777856920108466e+01 -1 -1 0
2374 444 2 -8.2999999999999996e-01 4.6420390213971183e+00 9.3693185425790535e+00 8.3548481833426216e+00 1 0 0
1667 444 1 4.1499999999999998e-01 2.5962651138204178e+00 9.3200972408085718e+00 1.3063045735601808e+01 1 0 0
988 444 2 -8.2999999999999996e-01 3.7061258153014989e+00 7.8843675326719946e+00 1.0371023804963245e+01 0 -1 0
2376 444 1 4.1499999999999998e-01 4.3334805859579717e+00 8.6534467583247494e+00 8.9103219504882869e+00 1 0 0
2823 444 1 4.1499999999999998e-01 1.7081901599350784e+00 9.8960939654076263e+00 1.1099200555572256e+01 1 1 0
499 444 2 -8.2999999999999996e-01 6.3017559640677066e+00 1.1564071973223189e+01 1.9250569769380430e+01 1 0 0
989 444 1 4.1499999999999998e-01 3.0505304251193195e+00 7.1896282830628779e+00 1.0309667964281356e+01 0 -1 0
1668 444 1 4.1499999999999998e-01 3.7081765404570093e+00 1.0160085813672247e+01 1.2471465413861418e+01 1 0 0
1666 444 2 -8.2999999999999996e-01 2.8630050380980658e+00 9.7645032228084876e+00 1.2258319098920676e+01 1 0 0
2893 444 2 -8.2999999999999996e-01 5.8029364680435291e+00 8.8747434383103876e+00 1.4733930449194780e+01 -1 0 0
2894 444 1 4.1499999999999998e-01 5.6694408810998809e+00 8.0563544456032066e+00 1.4255756577858353e+01 -1 0 0
1238 444 1 4.1499999999999998e-01 6.2131060910103040e+00 1.1712227774984820e+01 1.3897829748428387e+01 -1 0 0
1239 444 1 4.1499999999999998e-01 5.5602694793014917e+00 1.0446518746402417e+01 1.4411327656201303e+01 -1 0 0
990 444 1 4.1499999999999998e-01 3.4192240708890496e+00 8.4204657235731908e+00 1.1110292534751229e+01 0 -1 0
1171 444 2 -8.2999999999999996e-01 1.7849035247795866e+00 8.6444908309881008e+00 1.4389265197696549e+01 0 0 0
1009 444 2 -8.2999999999999996e-01 1.5049016976835183e+00 9.1492663901428042e+00 3.2649027976508101e+01 -1 0 0
1120 444 2 -8.2999999999999996e-01 1.8075755594275122e+00 1.0741924508544669e+01 1.6099287922879533e+01 -1 0 0
1122 444 1 4.1499999999999998e-01 9.5182053655207277e-01 1.0357950811504836e+01 1.6290283695543348e+01 -1 0 0
1121 444 1 4.1499999999999998e-01 2.1572144904132338e+00 1.0206617468257978e+01 1.5386946153665825e+01 -1 0 0
2572 444 2 -8.2999999999999996e-01 7.0716486963249832e+00 5.9645649847231921e+00 2.6427552227497987e+01 -1 -1 0
1172 444 1 4.1499999999999998e-01 2.0499017587455262e+00 7.8973092392624284e+00 1.4925667484245194e+01 0 0 0
684 444 1 4.1499999999999998e-01 6.7850255322870767e+00 7.8045056991354143e+00 8.3296944069308267e+00 0 1 0
1173 444 1 4.1499999999999998e-01 9.0881136300934229e-01 8.4174549722929317e+00 1.4077577813729862e+01 0 0 0
1454 444 1 4.1499999999999998e-01 3.9541520559007459e-01 8.5954088387047580e+00 3.3841081671009512e+01 -1 1 0
2821 444 2 -8.2999999999999996e-01 9.7717190309741786e-01 9.9775741161898246e+00 1.0486660625555604e+01 1 1 0
1900 444 2 -8.2999999999999996e-01 5.4350377073590606e+00 6.3362613517630519e+00 1.4325644013558035e+01 0 0 0
272 444 1 4.1499999999999998e-01 3.1066801109555131e+00 1.0897235849180348e+01 1.9044918990752418e+01 1 1 0
1237 444 2 -8.2999999999999996e-01 5.3613205811034073e+00 1.1336406086382238e+01 1.4120206242985063e+01 -1 0 0
740 444 1 4.1499999999999998e-01 7.1394609931791360e+00 8.3056103536395423e+00 3.2205645360124620e+01 -1 -1 0
712 444 2 -8.2999999999999996e-01 3.9076688454855696e-01 9.5908881706825486e+00 3.0113754985445837e+01 0 1 0
2705 444 1 4.1499999999999998e-01 1.7130370598051967e+00 9.7229689000923294e+00 8.6645816179659612e+00 2 0 0
1126 444 2 -8.2999999999999996e-01 6.7080003331985205e+00 6.0859381594849369e+00 8.6256902381405638e+00 -1 0 0
1074 444 1 4.1499999999999998e-01 6.9906885192785007e-01 7.8752765006629826e+00 2.9547541773623461e+01 2 1 0
1545 444 1 4.1499999999999998e-01 4.2781770227456120e+00 1.0785424838092851e+01 2.9681532746785017e+01 1 1 0
1504 444 2 -8.2999999999999996e-01 5.9344464066894531e+00 1.0982461578665038e+01 2.4231639070820151e+01 1 0 0
1207 444 2 -8.2999999999999996e-01 1.5008491035737974e+00 9.0789604150049126e+00 2.1552282705446363e+01 1 0 0
273 444 1 4.1499999999999998e-01 3.4344666815307394e+00 9.4281930072477493e+00 1.8882548332426786e+01 1 1 0
1209 444 1 4.1499999999999998e-01 1.3613548584590638e+00 8.1405613125623866e+00 2.1425080619922877e+01 1 0 0
1231 444 2 -8.2999999999999996e-01 3.8609043835927008e+00 6.2313661286908442e+00 3.2649382946822165e+01 0 1 0
2886 444 1 4.1499999999999998e-01 1.7091596162638734e+00 1.0085057457547057e+01 2.3233558911633324e+01 1 1 0
501 444 1 4.1499999999999998e-01 6.0968509948094853e+00 1.0901708201427558e+01 1.8590630263696429e+01 1 0 0
741 444 1 4.1499999999999998e-01 6.6154098627990026e+00 8.7222423846254156e+00 3.0847822336238220e+01 -1 -1 0
2840 444 1 4.1499999999999998e-01 3.7588773289759914e+00 7.5174486556182298e+00 2.3653562927429206e+01 1 0 0
373 444 2 -8.2999999999999996e-01 3.0933982810820654e-01 1.1695421049314144e+01 3.2976740235473812e+01 2 1 0
2884 444 2 -8.2999999999999996e-01 1.7851343623658551e+00 1.0534233894896508e+01 2.4075402547163485e+01 1 1 0
2108 444 1 4.1499999999999998e-01 2.8472966671557287e-01 6.3281854888739142e+00 2.1213294747155317e+01 0 -1 0
330 444 1 4.1499999999999998e-01 4.8798320758905138e+00 8.5035172483708568e+00 1.6911433094645346e+01 2 0 0
1230 444 1 4.1499999999999998e-01 5.3392956279643276e+00 7.5597106606799880e+00 1.8941404002587262e+01 2 1 0
328 444 2 -8.2999999999999996e-01 4.4430632458623469e+00 8.2278484134565950e+00 1.7717331042782781e+01 2 0 0
329 444 1 4.1499999999999998e-01 3.8538577247791421e+00 7.5252448406582833e+00 1.7442709674909448e+01 2 0 0
1228 444 2 -8.2999999999999996e-01 5.7938071841378358e+00 7.3429602717154063e+00 1.9755450368257470e+01 2 1 0
2573 444 1 4.1499999999999998e-01 6.1839245751549718e+00 6.1720413493729724e+00 2.6719324813910323e+01 -1 -1 0
1186 444 2 -8.2999999999999996e-01 2.6752409921571281e+00 6.4258606972078907e+00 1.6983325023377091e+01 1 1 0
776 444 1 4.1499999999999998e-01 5.4071992034849199e+00 6.9400487329199594e+00 2.1544994572918942e+01 0 1 0
775 444 2 -8.2999999999999996e-01 5.2626367536299989e+00 7.5272450276166447e+00 2.2286974395025883e+01 0 1 0
2839 444 2 -8.2999999999999996e-01 3.4085761112532356e+00 7.2487054967030344e+00 2.4502855594748187e+01 1 0 0
2841 444 1 4.1499999999999998e-01 3.4581638002708770e+00 6.2928602914530138e+00 2.4491327737785820e+01 1 0 0
2109 444 1 4.1499999999999998e-01 1.4342670460532736e+00 6.0358656158184303e+00 2.0272546112340532e+01 0 -1 0
1232 444 1 4.1499999999999998e-01 3.8879084016122127e+00 7.1503956822544925e+00 3.2915629673983140e+01 0 1 0
2885 444 1 4.1499999999999998e-01 9.3225200297932742e-01 1.0409673665405188e+01 2.4491706234560031e+01 1 1 0
2895 444 1 4.1499999999999998e-01 6.7186353920362283e+00 8.8441538282884160e+00 1.5011043363351748e+01 -1 0 0
777 444 1 4.1499999999999998e-01 5.5122038221998686e+00 8.3919027125174228e+00 2.1960914296175613e+01 0 1 0
271 444 2 -8.2999999999999996e-01 3.2774662829349057e+00 1.0099873980637506e+01 1.9546195359816966e+01 1 1 0
1505 444 1 4.1499999999999998e-01 5.7013306878126730e+00 1.0521184967892122e+01 2.3425963704617931e+01 1 0 0
1208 444 1 4.1499999999999998e-01 1.9418893403188311e+00 9.3665521101575333e+00 2.0752903958399127e+01 1 0 0
327 444 1 4.1499999999999998e-01 1.7837062178854766e+00 7.9670162404816560e+00 2.5054733615782943e+01 -1 -1 0
1506 444 1 4.1499999999999998e-01 5.1769688844869419e+00 1.1537058760083678e+01 2.4418405264095135e+01 1 0 0
2480 444 1 4.1499999999999998e-01 6.4693501168810812e+00 6.1663272044329203e+00 2.9431276207989956e+01 0 1 0
1229 444 1 4.1499999999999998e-01 6.4160693830429443e+00 8.0593874491029904e+00 1.9880966430216411e+01 2 1 0
1011 444 1 4.1499999999999998e-01 2.4422527310504027e+00 9.2014842055432666e+00 3.2835788505952344e+01 -1 0 0
2737 444 2 -8.2999999999999996e-01 4.0877309632544234e+00 9.0947242659399112e+00 3.3303845590123089e+01 1 1 0
323 444 1 4.1499999999999998e-01 5.8847361888578842e+00 7.8591417663729128e+00 2.8606011263599186e+01 2 -1 0
2739 444 1 4.1499999999999998e-01 3.9014673116793950e+00 9.9989971980429999e+00 3.3556490487422373e+01 1 1 0
713 444 1 4.1499999999999998e-01 5.4760526275972510e-01 9.7603426831804256e+00 3.1042689238157376e+01 0 1 0
1544 444 1 4.1499999999999998e-01 2.7736952545909141e+00 1.0879153854900293e+01 2.9541373456586996e+01 1 1 0
1233 444 1 4.1499999999999998e-01 2.9896737438256622e+00 5.9317790202745071e+00 3.2909068422796338e+01 0 1 0
1242 444 1 4.1499999999999998e-01 2.0773772912516066e+00 6.2513483463384603e+00 2.9623098132714503e+01 0 0 0
324 444 1 4.1499999999999998e-01 6.8580261221920633e+00 9.0186782299932418e+00 2.8597156370077656e+01 2 -1 0
326 444 1 4.1499999999999998e-01 3.5733156634765756e-01 8.4735863268515601e+00 2.5081899649179725e+01 -1 -1 0
1818 444 1 4.1499999999999998e-01 7.0135251753681149e-01 5.9351796236310852e+00 2.4797655457207409e+01 -1 0 0
1010 444 1 4.1499999999999998e-01 1.1780234639678118e+00 1.0033990587704809e+01 3.2812265020183311e+01 -1 0 0
1395 444 1 4.1499999999999998e-01 1.7587222207896494e-01 6.2916993061496971e+00 2.6646863781881386e+01 0 1 0
1044 444 1 4.1499999999999998e-01 4.2280817231141397e+00 1.0676766233168216e+01 2.1355183207395427e+01 0 0 0
1543 444 2 -8.2999999999999996e-01 3.5911821693258577e+00 1.1162959052329128e+01 2.9132225913600653e+01 1 1 0
1072 444 2 -8.2999999999999996e-01 6.9874698709608762e-01 6.9182846653019840e+00 2.9567500207983720e+01 2 1 0
2495 444 1 4.1499999999999998e-01 3.0545365363705845e+00 9.2961147724425910e+00 2.6617810128285335e+01 -1 -1 0
325 444 2 -8.2999999999999996e-01 8.7424973766194281e-01 7.6684912308981046e+00 2.5052731550796953e+01 -1 -1 0
839 444 1 4.1499999999999998e-01 6.6577933525714528e+00 1.1081439328634454e+01 3.0625401553088423e+01 1 1 0
2738 444 1 4.1499999999999998e-01 5.0122604407753890e+00 9.1003834470660454e+00 3.3055962986129259e+01 1 1 0
208 444 2 -8.2999999999999996e-01 5.0061233150010755e+00 6.6889593642512866e+00 2.7905597041405443e+01 0 0 0
840 444 1 4.1499999999999998e-01 7.1088161690100469e+00 1.1413127896836446e+01 2.9218825461931836e+01 1 1 0
2496 444 1 4.1499999999999998e-01 3.4986245735538577e+00 8.0191244305807849e+00 2.5936651801269925e+01 -1 -1 0