LAMMPS data file via write_data, version 11 Aug 2017, timestep = 1000000

3567 atoms
13 atom types
2024 bonds
5 bond types
1018 angles
5 angle types
12 dihedrals
4 dihedral types
9 impropers
1 improper types

0.0000000000000000e+00 3.2704500000000003e+01 xlo xhi
0.0000000000000000e+00 3.2704500000000003e+01 ylo yhi
0.0000000000000000e+00 8.0000000000000000e+01 zlo zhi

Masses

1 1.0079
2 15.9994
3 39.0983
4 63.546
5 15.9994
6 12.011
7 12.011
8 1.0079
9 12.011
10 15.9994
11 15.9994
12 15.9994
13 1.0079

Bond Coeffs # harmonic

1 450 0.9572
2 570 1.229
3 450 1.364
4 570 1.229
5 553 0.945

Angle Coeffs # harmonic

1 100 123.32
2 85 124
3 55 104.52
4 35 113
5 100 123.32

Dihedral Coeffs # charmm

1 0.922 1 180 0
2 3.741 2 0 0
3 0.922 1 0 0
4 3.741 2 180 0

Improper Coeffs # umbrella

1 21 0

Atoms # full

3049 444 4 0.0000000000000000e+00 1.6779500000000001e+00 6.7501999999999995e-01 3.5985700000000000e+00 0 0 0
3051 444 4 0.0000000000000000e+00 1.6560500000000000e+00 2.4790000000000001e+00 1.8169999999999999e+00 0 0 0
3060 444 4 0.0000000000000000e+00 1.6560500000000000e+00 6.6205000000000003e-01 0.0000000000000000e+00 0 0 0
517 444 2 -8.2999999999999996e-01 1.4098628290424911e+00 9.6803864316914490e-01 7.6487608785970389e+00 -1 1 0
1715 444 1 4.1499999999999998e-01 1.8048865574027908e+00 3.8751900193388127e+00 6.8123179796614659e+00 1 2 0
518 444 1 4.1499999999999998e-01 6.0688411114243612e-01 1.2910046990503607e+00 7.2399194902970612e+00 -1 1 0
1716 444 1 4.1499999999999998e-01 3.1408207414210060e-01 3.7561286974146251e+00 6.5773251737591716e+00 1 2 0
2142 444 1 4.1499999999999998e-01 2.7502806953667869e-01 6.7948393579687283e-01 1.1587467675830133e+01 0 -3 0
2538 444 1 4.1499999999999998e-01 1.5062831178444795e+00 3.7182762114494905e-01 1.5928231308329810e+01 3 4 0
455 444 1 4.1499999999999998e-01 8.8423547805505293e-02 2.9307626358715315e+00 1.2148122811781354e+01 0 1 0
1757 444 1 4.1499999999999998e-01 1.6047991644341044e+00 1.1955523181777417e+00 1.3935486756692542e+01 3 2 0
456 444 1 4.1499999999999998e-01 9.2254177733296228e-01 4.0586918456191885e+00 1.1578985411042353e+01 0 1 0
2140 444 2 -8.2999999999999996e-01 1.8203073722061500e-01 9.3646838673811739e-01 1.2504823792452829e+01 0 -3 0
454 444 2 -8.2999999999999996e-01 3.7629014684159695e-01 3.8254293994546793e+00 1.2329604873877916e+01 0 1 0
1169 444 1 4.1499999999999998e-01 1.3416959817000993e+00 4.5209325842450354e-01 9.2815162953436250e+00 0 -1 0
1168 444 2 -8.2999999999999996e-01 1.1748754737124849e+00 1.8247188683253912e-01 1.0184681310574732e+01 0 -1 0
719 444 1 4.1499999999999998e-01 1.8777837810468576e+00 3.9052163443048187e+00 1.7443933035211497e+01 1 -5 0
718 444 2 -8.2999999999999996e-01 1.3286585361612069e+00 4.0412585007190129e+00 1.8216064285524219e+01 1 -5 0
2536 444 2 -8.2999999999999996e-01 9.4950457608507488e-01 4.3102450652777935e-01 1.6704585128269699e+01 3 4 0
2537 444 1 4.1499999999999998e-01 2.5805924171170591e-01 1.0452008811251472e+00 1.6457760092684364e+01 3 4 0
534 444 1 4.1499999999999998e-01 4.1425178583911504e-01 2.2708748681257154e+00 1.8898137488319232e+01 1 2 0
533 444 1 4.1499999999999998e-01 4.1443510239534442e-01 8.8715693548538310e-01 1.8283955291164251e+01 1 2 0
532 444 2 -8.2999999999999996e-01 3.4147074598644978e-01 1.3431639727274876e+00 1.9122385698277785e+01 1 2 0
3066 444 4 0.0000000000000000e+00 1.6560500000000000e+00 4.2959500000000004e+00 0.0000000000000000e+00 0 0 0
3067 444 4 0.0000000000000000e+00 1.6714000000000000e+00 4.2765000000000004e+00 3.5693600000000001e+00 0 0 0
3069 444 4 0.0000000000000000e+00 1.6560500000000000e+00 6.1128000000000000e+00 1.8169999999999999e+00 0 0 0
3086 444 4 0.0000000000000000e+00 1.6560500000000000e+00 7.9297500000000003e+00 0.0000000000000000e+00 0 0 0
3087 444 4 0.0000000000000000e+00 1.7129000000000001e+00 7.9725999999999999e+00 3.5737999999999999e+00 0 0 0
1714 444 2 -8.2999999999999996e-01 1.0167707273496860e+00 4.3994558394447942e+00 6.6700120089534005e+00 1 2 0
151 444 2 -8.2999999999999996e-01 1.3698598891990128e+00 7.1037277149937914e+00 6.6145360464736331e+00 3 0 0
152 444 1 4.1499999999999998e-01 1.2132879736861322e+00 6.1678953472051257e+00 6.4883027371661832e+00 3 0 0
153 444 1 4.1499999999999998e-01 5.1755385455289327e-01 7.4574927526080685e+00 6.8688125667535154e+00 3 0 0
812 444 1 4.1499999999999998e-01 4.0347932423170835e-01 5.8166941232190785e+00 1.3635553241031985e+01 -1 2 0
928 444 2 -8.2999999999999996e-01 1.2706551198275548e-01 7.9565307759601502e+00 1.0741651899882456e+01 2 1 0
811 444 2 -8.2999999999999996e-01 9.0933920156871129e-01 5.9794884247721400e+00 1.4431691599634906e+01 -1 2 0
531 444 1 4.1499999999999998e-01 1.9237185844918441e+00 7.8737799573660245e+00 1.0723225966982392e+01 2 -2 0
813 444 1 4.1499999999999998e-01 5.2018537646781915e-01 6.7699222582789886e+00 1.4805865481518488e+01 -1 2 0
26 444 1 4.1499999999999998e-01 1.6207770065754425e+00 4.4636692644078559e+00 1.5109098982647039e+01 -1 0 0
1033 444 2 -8.2999999999999996e-01 2.0183802512166191e+00 4.1900995482664838e+00 1.0307578043882714e+01 3 1 0
947 444 1 4.1499999999999998e-01 4.0551881040444171e-01 4.8577295307685180e+00 9.5430518703534286e+00 0 0 0
720 444 1 4.1499999999999998e-01 1.7518320349089307e+00 4.7583837063387247e+00 1.8688174543612096e+01 1 -5 0
3089 444 4 0.0000000000000000e+00 1.6560500000000000e+00 9.7467000000000006e+00 1.8169999999999999e+00 0 0 0
3108 444 4 0.0000000000000000e+00 1.6779500000000001e+00 1.1576520000000000e+01 3.5985700000000000e+00 0 0 0
3119 444 4 0.0000000000000000e+00 1.6560500000000000e+00 1.1563549999999999e+01 0.0000000000000000e+00 0 0 0
613 444 2 -8.2999999999999996e-01 9.1138777560246531e-01 1.1455511419604134e+01 6.4028037448405195e+00 3 -4 0
875 444 1 4.1499999999999998e-01 9.2591892778424896e-03 1.0768843871536689e+01 1.0583967228358524e+01 -2 -2 0
545 444 1 4.1499999999999998e-01 1.8139857485039967e+00 9.6281618901358694e+00 1.2901712081683687e+01 -4 0 0
2741 444 1 4.1499999999999998e-01 7.4343987086255126e-01 8.7928406350106325e+00 1.5822991272946135e+01 5 -1 0
2740 444 2 -8.2999999999999996e-01 1.2871898856795694e+00 9.5663555046560589e+00 1.5972130328197240e+01 5 -1 0
874 444 2 -8.2999999999999996e-01 8.3369918639325691e-02 1.0567736270320490e+01 1.1516863352541726e+01 -2 -2 0
876 444 1 4.1499999999999998e-01 2.8446584132413416e-01 1.1408267571449576e+01 1.1928323497040820e+01 -2 -2 0
919 444 2 -8.2999999999999996e-01 2.0070593248903021e+00 1.1500306938098657e+01 9.2258996656882477e+00 -1 4 0
546 444 1 4.1499999999999998e-01 1.9322506799719070e+00 9.7700035587135314e+00 1.4404306305453007e+01 -4 0 0
2742 444 1 4.1499999999999998e-01 1.2919520200064298e+00 9.6766613835351531e+00 1.6922941430932845e+01 5 -1 0
2389 444 2 -8.2999999999999996e-01 1.0261164729862939e+00 9.7932341950286848e+00 1.8543950568157925e+01 -3 0 0
2391 444 1 4.1499999999999998e-01 1.8272690480165035e+00 9.5887588081076665e+00 1.9026212092543656e+01 -3 0 0
2390 444 1 4.1499999999999998e-01 7.8435257281546999e-01 1.0670414223593538e+01 1.8841166391529661e+01 -3 0 0
2354 444 1 4.1499999999999998e-01 9.4973331261628297e-02 8.2591409570774896e+00 1.8364105147983935e+01 3 4 0
3110 444 4 0.0000000000000000e+00 1.6560500000000000e+00 1.3380500000000000e+01 1.8169999999999999e+00 0 0 0
3125 444 4 0.0000000000000000e+00 1.6560500000000000e+00 1.5197450000000000e+01 0.0000000000000000e+00 0 0 0
3126 444 4 0.0000000000000000e+00 1.6714000000000000e+00 1.5178000000000001e+01 3.5693600000000001e+00 0 0 0
59 444 1 4.1499999999999998e-01 6.2187962269847366e-02 1.4847641358933300e+01 6.5209513363786060e+00 2 0 0
615 444 1 4.1499999999999998e-01 8.9317509119961402e-01 1.2410998886175301e+01 6.4570603300048086e+00 3 -4 0
42 444 1 4.1499999999999998e-01 3.0024549224160291e-01 1.3010200120499256e+01 1.3370773315148829e+01 -1 -3 0
584 444 1 4.1499999999999998e-01 4.3776968506362429e-01 1.3258793287845144e+01 1.5740390877487565e+01 1 2 0
2477 444 1 4.1499999999999998e-01 2.7394577244857898e-01 1.6113093981012106e+01 8.2707550604129914e+00 2 3 0
2270 444 1 4.1499999999999998e-01 7.2602499761703554e-01 1.2502666789397635e+01 9.1818808112139116e+00 0 0 0
2316 444 1 4.1499999999999998e-01 1.5104365392393106e+00 1.4163550483255218e+01 1.1935433559760449e+01 3 1 0
583 444 2 -8.2999999999999996e-01 3.7311709898654505e-01 1.2577161027960738e+01 1.5071488786852100e+01 1 2 0
40 444 2 -8.2999999999999996e-01 4.0963842948255524e-01 1.3026333407384069e+01 1.2419981720175562e+01 -1 -3 0
1645 444 2 -8.2999999999999996e-01 5.9392024021196743e-01 1.4698495299506654e+01 1.7059009282967512e+01 1 4 0
304 444 2 -8.2999999999999996e-01 5.6072625908638107e-01 1.2452683460422746e+01 1.8898396305921793e+01 1 -1 0
1647 444 1 4.1499999999999998e-01 1.4060337448796496e+00 1.5070357223120215e+01 1.7403134453157076e+01 1 4 0
306 444 1 4.1499999999999998e-01 1.1838736132113741e+00 1.2771173472479006e+01 1.9551454222594732e+01 1 -1 0
305 444 1 4.1499999999999998e-01 3.8324434603480906e-01 1.3213302026783365e+01 1.8345050113111117e+01 1 -1 0
3128 444 4 0.0000000000000000e+00 1.6560500000000000e+00 1.7014299999999999e+01 1.8169999999999999e+00 0 0 0
3145 444 4 0.0000000000000000e+00 1.6560500000000000e+00 1.8831250000000001e+01 0.0000000000000000e+00 0 0 0
3146 444 4 0.0000000000000000e+00 1.7129000000000001e+00 1.8874099999999999e+01 3.5737999999999999e+00 0 0 0
2286 444 1 4.1499999999999998e-01 9.8957798564734234e-01 1.7277078313570978e+01 6.6519115336214716e+00 1 3 0
2329 444 2 -8.2999999999999996e-01 1.2576176379992456e+00 1.9268950375597075e+01 6.2080204788479350e+00 3 2 0
2330 444 1 4.1499999999999998e-01 3.1229351596938104e-01 1.9146993748477655e+01 6.1201530812006624e+00 3 2 0
2331 444 1 4.1499999999999998e-01 1.3496179148782774e+00 1.9994453212652541e+01 6.8256072917872155e+00 3 2 0
2284 444 2 -8.2999999999999996e-01 1.2254486431080545e+00 1.6402528464846668e+01 6.9613634394734829e+00 1 3 0
968 444 1 4.1499999999999998e-01 3.6000059775405963e-01 1.7996229061328826e+01 1.4552956784657251e+01 3 -2 0
748 444 2 -8.2999999999999996e-01 1.6968371468971215e+00 1.7689741122967781e+01 1.1715298241499882e+01 4 -2 0
749 444 1 4.1499999999999998e-01 8.7999352537849584e-01 1.7809676707510032e+01 1.1230927933054655e+01 4 -2 0
967 444 2 -8.2999999999999996e-01 4.2309250503866780e-01 1.8554955091504283e+01 1.5327602770726543e+01 3 -2 0
750 444 1 4.1499999999999998e-01 1.6440888909170892e+00 1.6797376008230419e+01 1.2057548026202511e+01 4 -2 0
969 444 1 4.1499999999999998e-01 2.3606735041647672e-01 1.7969646002713670e+01 1.6061541909726614e+01 3 -2 0
1853 444 1 4.1499999999999998e-01 1.6104716109009836e+00 1.8795305634127004e+01 1.9376928126488348e+01 2 2 0
871 444 2 -8.2999999999999996e-01 1.1648292269935376e-01 1.8215964220707676e+01 1.9621287316444832e+01 -1 2 0
3148 444 4 0.0000000000000000e+00 1.6560500000000000e+00 2.0648199999999999e+01 1.8169999999999999e+00 0 0 0
3167 444 4 0.0000000000000000e+00 1.6779500000000001e+00 2.2478020000000001e+01 3.5985700000000000e+00 0 0 0
3169 444 4 0.0000000000000000e+00 1.6560500000000000e+00 2.4282000000000000e+01 1.8169999999999999e+00 0 0 0
3178 444 4 0.0000000000000000e+00 1.6560500000000000e+00 2.2465050000000002e+01 0.0000000000000000e+00 0 0 0
3016 444 2 -8.2999999999999996e-01 1.6187665078597027e+00 2.1479424480894753e+01 7.5098166926595651e+00 3 1 0
3017 444 1 4.1499999999999998e-01 8.3889929321722634e-01 2.1910132384171622e+01 7.1597743199148276e+00 3 1 0
617 444 1 4.1499999999999998e-01 1.9340044745944636e+00 2.3923905945935999e+01 6.5291701392278148e+00 -2 -1 0
616 444 2 -8.2999999999999996e-01 1.0713378265663731e+00 2.4338657041954153e+01 6.5246412345792395e+00 -2 -1 0
2011 444 2 -8.2999999999999996e-01 9.6646801010593031e-01 2.2062941987161807e+01 1.0214809303129314e+01 3 -1 0
1479 444 1 4.1499999999999998e-01 3.8297867657553780e-01 2.1280617327199455e+01 1.3533806370190508e+01 -2 -1 0
2012 444 1 4.1499999999999998e-01 1.7258816241810524e+00 2.1729543496642886e+01 9.7369301620877788e+00 3 -1 0
1477 444 2 -8.2999999999999996e-01 1.1638067333545417e+00 2.1533604148636432e+01 1.3041325532558567e+01 -2 -1 0
2013 444 1 4.1499999999999998e-01 1.0301754735494724e+00 2.1657543640280782e+01 1.1079578428537841e+01 3 -1 0
1478 444 1 4.1499999999999998e-01 1.4569059769665549e+00 2.2344840836337308e+01 1.3456320453779597e+01 -2 -1 0
2895 444 1 4.1499999999999998e-01 9.4432587605627116e-02 2.3543029327694295e+01 9.6943251796529353e+00 1 1 0
2894 444 1 4.1499999999999998e-01 9.1684019589879678e-02 2.4522797730570669e+01 8.5402275479971177e+00 1 1 0
1428 444 1 4.1499999999999998e-01 4.3524988600250603e-01 2.1221273770327095e+01 1.9422620434012760e+01 5 0 0
2675 444 1 4.1499999999999998e-01 1.0029411141019997e+00 2.2730268471693019e+01 1.7418160537385557e+01 0 4 0
2674 444 2 -8.2999999999999996e-01 1.5876044228103947e+00 2.3317964100016798e+01 1.6939604419866427e+01 0 4 0
1427 444 1 4.1499999999999998e-01 1.2797011916353516e+00 2.0833859466183569e+01 1.8227334673342295e+01 5 0 0
2676 444 1 4.1499999999999998e-01 1.4109500038868301e+00 2.4183924570290014e+01 1.7307216165038682e+01 0 4 0
1426 444 2 -8.2999999999999996e-01 7.0270853993878957e-01 2.1523852536161304e+01 1.8554781165594342e+01 5 0 0
3184 444 4 0.0000000000000000e+00 1.6560500000000000e+00 2.6098949999999999e+01 0.0000000000000000e+00 0 0 0
3185 444 4 0.0000000000000000e+00 1.6714000000000000e+00 2.6079499999999999e+01 3.5693600000000001e+00 0 0 0
3187 444 4 0.0000000000000000e+00 1.6560500000000000e+00 2.7915800000000001e+01 1.8169999999999999e+00 0 0 0
618 444 1 4.1499999999999998e-01 1.2559787786481778e+00 2.5277008073353812e+01 6.5651045975766760e+00 -2 -1 0
1249 444 2 -8.2999999999999996e-01 1.0758038113313533e+00 2.6653119702892003e+01 7.9532137510687484e+00 -1 -3 0
70 444 2 -8.2999999999999996e-01 6.7996181563137781e-01 2.6612649680561098e+01 1.0837414310813557e+01 1 3 0
1901 444 1 4.1499999999999998e-01 7.1258113873976092e-01 2.8315401210806158e+01 1.5937164511069957e+01 -3 2 0
71 444 1 4.1499999999999998e-01 1.5851894575186776e-01 2.5882393105098469e+01 1.0504163767090272e+01 1 3 0
1250 444 1 4.1499999999999998e-01 3.7158027092941098e-01 2.7261758727489568e+01 8.1765091488806139e+00 -1 -3 0
1251 444 1 4.1499999999999998e-01 1.3001031458722225e+00 2.6230974791714679e+01 8.7825001356254067e+00 -1 -3 0
72 444 1 4.1499999999999998e-01 3.1370791392245967e-01 2.6793717194744175e+01 1.1703038571978901e+01 1 3 0
2559 444 1 4.1499999999999998e-01 7.1797266146747762e-01 2.6268583163276368e+01 1.8335436885497316e+01 0 1 0
2557 444 2 -8.2999999999999996e-01 1.5352552048404069e+00 2.5869260797435135e+01 1.8037403172935488e+01 0 1 0
3204 444 4 0.0000000000000000e+00 1.6560500000000000e+00 2.9732749999999999e+01 0.0000000000000000e+00 0 0 0
3205 444 4 0.0000000000000000e+00 1.7129000000000001e+00 2.9775600000000001e+01 3.5737999999999999e+00 0 0 0
3207 444 4 0.0000000000000000e+00 1.6560500000000000e+00 3.1549700000000001e+01 1.8169999999999999e+00 0 0 0
2215 444 2 -8.2999999999999996e-01 1.0172751461315255e+00 3.0110511803070789e+01 6.9694608144221366e+00 -3 3 0
2216 444 1 4.1499999999999998e-01 6.1212200315405874e-01 2.9506722931064697e+01 7.5919733721375389e+00 -3 3 0
2217 444 1 4.1499999999999998e-01 3.3512843035984674e-01 3.0755265775699488e+01 6.7818434933418690e+00 -3 3 0
363 444 1 4.1499999999999998e-01 7.7731926499521009e-01 3.1793635721977775e+01 1.4151142555883510e+01 1 0 0
1170 444 1 4.1499999999999998e-01 1.9937681273498260e+00 3.2481082629078806e+01 1.0469111476803631e+01 0 -2 0
362 444 1 4.1499999999999998e-01 6.6355626705787807e-01 3.1528708266046891e+01 1.5637334536664401e+01 1 0 0
361 444 2 -8.2999999999999996e-01 9.2981266536029661e-01 3.1119926019149421e+01 1.4813783353567553e+01 1 0 0
1293 444 1 4.1499999999999998e-01 5.7705118763110586e-01 3.0797459788133700e+01 1.9592481200768617e+01 5 0 0
167 444 1 4.1499999999999998e-01 1.7669405541641789e+00 3.0427291265610620e+01 1.7812650454836493e+01 3 1 0
3050 444 4 0.0000000000000000e+00 3.4729999999999999e+00 6.6205000000000003e-01 1.8169999999999999e+00 0 0 0
3074 444 4 0.0000000000000000e+00 3.4762800000000000e+00 2.4616400000000001e+00 3.5975299999999999e+00 0 0 0
3075 444 4 0.0000000000000000e+00 3.4729999999999999e+00 2.4790000000000001e+00 0.0000000000000000e+00 0 0 0
2626 444 2 -8.2999999999999996e-01 3.4130298025252439e+00 2.6743216476785459e+00 6.7411256444417891e+00 0 -2 0
2628 444 1 4.1499999999999998e-01 3.8089337932117946e+00 3.5300570482808307e+00 6.5761750807811108e+00 0 -2 0
519 444 1 4.1499999999999998e-01 2.1063837156225538e+00 1.4982084759267729e+00 7.2614474864898861e+00 -1 1 0
27 444 1 4.1499999999999998e-01 2.1146839180123416e+00 3.0442648067679512e+00 1.5291425315491212e+01 -1 0 0
1758 444 1 4.1499999999999998e-01 3.1059169296925231e+00 1.0455037677208843e+00 1.4062081634533964e+01 3 2 0
1756 444 2 -8.2999999999999996e-01 2.2914822240891612e+00 9.5178141879931843e-01 1.4556191861676774e+01 3 2 0
25 444 2 -8.2999999999999996e-01 2.2345581692428382e+00 3.9354623928070853e+00 1.5619493883063097e+01 -1 0 0
1034 444 1 4.1499999999999998e-01 2.4669814067427618e+00 3.3462198085208059e+00 1.0254136706487834e+01 3 1 0
2421 444 1 4.1499999999999998e-01 3.9885358129582098e+00 5.1292982874897985e-01 1.7427567781960107e+01 3 -1 0
3064 444 4 0.0000000000000000e+00 3.4729999999999999e+00 6.1128000000000000e+00 0.0000000000000000e+00 0 0 0
3065 444 4 0.0000000000000000e+00 3.4751300000000001e+00 6.1117800000000004e+00 3.5788400000000000e+00 0 0 0
3068 444 4 0.0000000000000000e+00 3.4729999999999999e+00 4.2959500000000004e+00 1.8169999999999999e+00 0 0 0
3088 444 4 0.0000000000000000e+00 3.4729999999999999e+00 7.9297500000000003e+00 1.8169999999999999e+00 0 0 0
332 444 1 4.1499999999999998e-01 2.7498817577423735e+00 6.6725631066790463e+00 7.7134695365037462e+00 2 3 0
551 444 1 4.1499999999999998e-01 2.5886487452550635e+00 6.1356629042146080e+00 1.3680076469572159e+01 -2 -1 0
333 444 1 4.1499999999999998e-01 3.0370807630837082e+00 6.7414399280512001e+00 9.1982819904133901e+00 2 3 0
550 444 2 -8.2999999999999996e-01 3.3776216309424965e+00 6.2219698869342501e+00 1.3145001212573497e+01 -2 -1 0
331 444 2 -8.2999999999999996e-01 3.3111280003769163e+00 6.3008076869241965e+00 8.3939352776511047e+00 2 3 0
1035 444 1 4.1499999999999998e-01 2.7156264409849413e+00 4.8389826644256662e+00 1.0212549324444014e+01 3 1 0
529 444 2 -8.2999999999999996e-01 2.8682746037679694e+00 7.7842802734754679e+00 1.0849862841905438e+01 2 -2 0
552 444 1 4.1499999999999998e-01 4.0331662418853602e+00 6.5846379475642172e+00 1.3740790719920488e+01 -2 -1 0
530 444 1 4.1499999999999998e-01 2.9575635673607059e+00 7.3832062654808652e+00 1.1714385770885743e+01 2 -2 0
1377 444 1 4.1499999999999998e-01 3.9963854912827967e+00 4.3501982795430001e+00 1.3074841160103141e+01 3 3 0
704 444 1 4.1499999999999998e-01 3.6904503639898709e+00 4.7647678695650599e+00 1.6438274367515465e+01 2 0 0
1688 444 1 4.1499999999999998e-01 3.7001691706217605e+00 6.1234382295450223e+00 1.9561160583219909e+01 -3 0 0
1687 444 2 -8.2999999999999996e-01 2.8536893095462355e+00 5.9989409756857679e+00 1.9990351048859033e+01 -3 0 0
1846 444 2 -8.2999999999999996e-01 3.7649994258854442e+00 7.8494547513674302e+00 1.7630583292159088e+01 1 2 0
1848 444 1 4.1499999999999998e-01 3.4468551199592317e+00 7.9063020732854916e+00 1.8531574420313923e+01 1 2 0
3084 444 4 0.0000000000000000e+00 3.4729999999999999e+00 9.7467000000000006e+00 0.0000000000000000e+00 0 0 0
3085 444 4 0.0000000000000000e+00 3.4859100000000001e+00 9.7680199999999999e+00 3.5986600000000002e+00 0 0 0
3109 444 4 0.0000000000000000e+00 3.4729999999999999e+00 1.1563549999999999e+01 1.8169999999999999e+00 0 0 0
1612 444 2 -8.2999999999999996e-01 2.9727594804828090e+00 9.3382554956880774e+00 6.4113914643967931e+00 2 -2 0
1613 444 1 4.1499999999999998e-01 2.6077931137395103e+00 8.4562103577072154e+00 6.4822980353624340e+00 2 -2 0
1614 444 1 4.1499999999999998e-01 2.2086458683602976e+00 9.9075531359594802e+00 6.3204934823150145e+00 2 -2 0
2697 444 1 4.1499999999999998e-01 3.8038736488884961e+00 1.1071181688386281e+01 6.6009237771521567e+00 3 2 0
921 444 1 4.1499999999999998e-01 2.5688216714586036e+00 1.0960870874686096e+01 8.6694253069295577e+00 -1 4 0
2998 444 2 -8.2999999999999996e-01 3.8760032348943172e+00 1.1653756484317610e+01 1.1673332602296298e+01 -3 0 0
544 444 2 -8.2999999999999996e-01 2.4571941620600981e+00 9.6904877137184808e+00 1.3607849594714045e+01 -4 0 0
3000 444 1 4.1499999999999998e-01 3.8605659419230478e+00 1.0822766408974870e+01 1.2148147554540648e+01 -3 0 0
920 444 1 4.1499999999999998e-01 2.4978017276325404e+00 1.1595071714242644e+01 1.0042247481012907e+01 -1 4 0
1629 444 1 4.1499999999999998e-01 3.7400652776415479e+00 9.5627799672054508e+00 1.5902424646440315e+01 1 0 0
1628 444 1 4.1499999999999998e-01 4.0075182258944713e+00 9.7242482079983752e+00 1.4421110337575863e+01 1 0 0
3127 444 4 0.0000000000000000e+00 3.4729999999999999e+00 1.5197450000000000e+01 1.8169999999999999e+00 0 0 0
3133 444 4 0.0000000000000000e+00 3.4762800000000000e+00 1.3363140000000000e+01 3.5975299999999999e+00 0 0 0
3134 444 4 0.0000000000000000e+00 3.4729999999999999e+00 1.3380500000000000e+01 0.0000000000000000e+00 0 0 0
1362 444 1 4.1499999999999998e-01 3.3627328677514292e+00 1.4790749696815734e+01 6.4144478656866459e+00 4 -2 0
1360 444 2 -8.2999999999999996e-01 3.0664648706511080e+00 1.4056581467893462e+01 6.9524577657573765e+00 4 -2 0
1361 444 1 4.1499999999999998e-01 2.1195192541994423e+00 1.4025917675454830e+01 6.8161282890180068e+00 4 -2 0
2696 444 1 4.1499999999999998e-01 3.7771465250915499e+00 1.2432245650846864e+01 7.2632577412697223e+00 3 2 0
2020 444 2 -8.2999999999999996e-01 3.2237370782742771e+00 1.5491301582397904e+01 9.6237859735395226e+00 -2 -2 0
2315 444 1 4.1499999999999998e-01 2.7078924821507426e+00 1.4537855812236410e+01 1.2782717320248617e+01 3 1 0
2021 444 1 4.1499999999999998e-01 3.1186148809585257e+00 1.5121051020689441e+01 1.0500196866967954e+01 -2 -2 0
2314 444 2 -8.2999999999999996e-01 2.0973601506335657e+00 1.4892495489930280e+01 1.2136410326038959e+01 3 1 0
2022 444 1 4.1499999999999998e-01 2.8708898129148088e+00 1.4822557334588302e+01 9.0368345962381582e+00 -2 -2 0
1850 444 1 4.1499999999999998e-01 3.9324339053545594e+00 1.3771742703872258e+01 1.4610368494350064e+01 2 0 0
1862 444 1 4.1499999999999998e-01 3.2139430719857560e+00 1.5271203034493114e+01 1.8685542020177365e+01 -1 -3 0
1861 444 2 -8.2999999999999996e-01 2.8271380960784436e+00 1.5756152908422020e+01 1.7956544381225971e+01 -1 -3 0
2042 444 1 4.1499999999999998e-01 2.8833711228669379e+00 1.3319913748419081e+01 1.6583189503420488e+01 -1 -2 0
2038 444 2 -8.2999999999999996e-01 3.8281562163599561e+00 1.3322547465132242e+01 1.6429545593811483e+01 -1 -2 0
1863 444 1 4.1499999999999998e-01 3.5471285149486822e+00 1.6283173624894321e+01 1.7609996406094485e+01 -1 -3 0
3123 444 4 0.0000000000000000e+00 3.4729999999999999e+00 1.7014299999999999e+01 0.0000000000000000e+00 0 0 0
3124 444 4 0.0000000000000000e+00 3.4751300000000001e+00 1.7013280000000002e+01 3.5788400000000000e+00 0 0 0
3147 444 4 0.0000000000000000e+00 3.4729999999999999e+00 1.8831250000000001e+01 1.8169999999999999e+00 0 0 0
383 444 1 4.1499999999999998e-01 2.9809380215561490e+00 1.9103334063942476e+01 6.5043054521783672e+00 2 -1 0
384 444 1 4.1499999999999998e-01 3.7441373266890450e+00 1.9132937045766372e+01 7.8114188442420103e+00 2 -1 0
382 444 2 -8.2999999999999996e-01 3.8639047696464579e+00 1.9032555024618162e+01 6.8670614166748081e+00 2 -1 0
2285 444 1 4.1499999999999998e-01 2.1823356940625369e+00 1.6390406801380426e+01 6.9400743985795383e+00 1 3 0
428 444 1 4.1499999999999998e-01 2.3917401018074296e+00 1.9257413514687872e+01 1.2026020550735398e+01 3 1 0
427 444 2 -8.2999999999999996e-01 2.7899446761155047e+00 2.0112561448429886e+01 1.1863580175428323e+01 3 1 0
2540 444 1 4.1499999999999998e-01 3.2772407533214647e+00 1.9911542871301588e+01 1.0088829513695016e+01 -5 -1 0
2539 444 2 -8.2999999999999996e-01 3.6880917118084833e+00 1.9603591898175150e+01 9.2809931871543334e+00 -5 -1 0
1852 444 2 -8.2999999999999996e-01 2.5217059372679138e+00 1.9081252879262347e+01 1.9312756552142549e+01 2 2 0
1854 444 1 4.1499999999999998e-01 2.6615169159616721e+00 1.9229163969605480e+01 1.8377445343464718e+01 2 2 0
1504 444 2 -8.2999999999999996e-01 2.6505568515417655e+00 2.0086969041202721e+01 1.6905064745414116e+01 -1 1 0
1506 444 1 4.1499999999999998e-01 2.2358821996876097e+00 1.9650006723603120e+01 1.6161195848463230e+01 -1 1 0
3143 444 4 0.0000000000000000e+00 3.4729999999999999e+00 2.0648199999999999e+01 0.0000000000000000e+00 0 0 0
3144 444 4 0.0000000000000000e+00 3.4859100000000001e+00 2.0669519999999999e+01 3.5986600000000002e+00 0 0 0
3168 444 4 0.0000000000000000e+00 3.4729999999999999e+00 2.2465050000000002e+01 1.8169999999999999e+00 0 0 0
3192 444 4 0.0000000000000000e+00 3.4762800000000000e+00 2.4264640000000000e+01 3.5975299999999999e+00 0 0 0
3193 444 4 0.0000000000000000e+00 3.4729999999999999e+00 2.4282000000000000e+01 0.0000000000000000e+00 0 0 0
319 444 2 -8.2999999999999996e-01 3.4797389064530240e+00 2.3050306550609342e+01 6.5949992622574936e+00 0 1 0
3018 444 1 4.1499999999999998e-01 2.3459702755166267e+00 2.2035416445561491e+01 7.2300320170634169e+00 3 1 0
320 444 1 4.1499999999999998e-01 4.0302380751232141e+00 2.3776183402211164e+01 6.3012557041003978e+00 0 1 0
321 444 1 4.1499999999999998e-01 4.0097186936796128e+00 2.2268679486798280e+01 6.4387546496464596e+00 0 1 0
2915 444 1 4.1499999999999998e-01 3.4754487512183272e+00 2.2129561388403388e+01 1.4976709399596798e+01 -1 3 0
2282 444 1 4.1499999999999998e-01 3.0039096246834589e+00 2.4321281543354033e+01 1.4380659202203436e+01 -3 -6 0
1404 444 1 4.1499999999999998e-01 3.5586408010552546e+00 2.3544158939867188e+01 1.2480277020612755e+01 0 0 0
2283 444 1 4.1499999999999998e-01 2.0542422585514424e+00 2.3379163980058422e+01 1.5089490254852702e+01 -3 -6 0
1403 444 1 4.1499999999999998e-01 3.6995563708895252e+00 2.4438037741639139e+01 1.1266597264338406e+01 0 0 0
2281 444 2 -8.2999999999999996e-01 2.5199427451221754e+00 2.3503929684851528e+01 1.4262575261366329e+01 -3 -6 0
429 444 1 4.1499999999999998e-01 2.2207032431097478e+00 2.0732790397561200e+01 1.2319115163996733e+01 3 1 0
1505 444 1 4.1499999999999998e-01 3.1403345170820103e+00 2.0811208944492289e+01 1.6515414737707577e+01 -1 1 0
3182 444 4 0.0000000000000000e+00 3.4729999999999999e+00 2.7915800000000001e+01 0.0000000000000000e+00 0 0 0
3183 444 4 0.0000000000000000e+00 3.4751300000000001e+00 2.7914780000000000e+01 3.5788400000000000e+00 0 0 0
3186 444 4 0.0000000000000000e+00 3.4729999999999999e+00 2.6098949999999999e+01 1.8169999999999999e+00 0 0 0
1699 444 2 -8.2999999999999996e-01 2.8772211819474012e+00 2.8278400103157988e+01 6.8260653686397008e+00 1 1 0
1701 444 1 4.1499999999999998e-01 2.2325292656040467e+00 2.7668485164335340e+01 7.1846848437254316e+00 1 1 0
2362 444 2 -8.2999999999999996e-01 2.7280070630518543e+00 2.8572832366133667e+01 1.4917317123222707e+01 -1 0 0
1246 444 2 -8.2999999999999996e-01 3.1467872054578439e+00 2.5795694284638873e+01 1.0697476282212543e+01 2 0 0
1248 444 1 4.1499999999999998e-01 3.6602146237895443e+00 2.6463666157749199e+01 1.0243122088995573e+01 2 0 0
1247 444 1 4.1499999999999998e-01 2.2604856363187258e+00 2.6155684344494194e+01 1.0730770624216776e+01 2 0 0
2513 444 1 4.1499999999999998e-01 2.8087562141146463e+00 2.5563890789985106e+01 1.5571146195368671e+01 4 0 0
2512 444 2 -8.2999999999999996e-01 3.5229652373385671e+00 2.5900094750632171e+01 1.5029755272054993e+01 4 0 0
2514 444 1 4.1499999999999998e-01 3.3240191245856465e+00 2.6829991214394834e+01 1.4920462738928835e+01 4 0 0
1630 444 2 -8.2999999999999996e-01 3.9701369180092128e+00 2.7908636686106846e+01 1.7756404838336003e+01 -1 1 0
2558 444 1 4.1499999999999998e-01 2.1834321431605108e+00 2.6570381740714193e+01 1.8104694259193259e+01 0 1 0
3202 444 4 0.0000000000000000e+00 3.4729999999999999e+00 3.1549700000000001e+01 0.0000000000000000e+00 0 0 0
3203 444 4 0.0000000000000000e+00 3.4859100000000001e+00 3.1571020000000001e+01 3.5986600000000002e+00 0 0 0
3206 444 4 0.0000000000000000e+00 3.4729999999999999e+00 2.9732749999999999e+01 1.8169999999999999e+00 0 0 0
2257 444 2 -8.2999999999999996e-01 3.2456007854705646e+00 3.1914027423338609e+01 6.2659969974645167e+00 0 -1 0
1700 444 1 4.1499999999999998e-01 2.3568802364214196e+00 2.9010592768771744e+01 6.4953525519504325e+00 1 1 0
2259 444 1 4.1499999999999998e-01 2.9866672072900871e+00 3.0992522634132772e+01 6.2698120196225959e+00 0 -1 0
2258 444 1 4.1499999999999998e-01 2.6279218247049001e+00 3.2339334314515717e+01 6.8608240168395946e+00 0 -1 0
226 444 2 -8.2999999999999996e-01 3.4899457496319251e+00 3.1910361081949642e+01 1.1227395936018368e+01 -1 -1 0
2363 444 1 4.1499999999999998e-01 3.0272511515976164e+00 2.9275710570226682e+01 1.5494072938506941e+01 -1 0 0
2364 444 1 4.1499999999999998e-01 2.7882203038863751e+00 2.8943016464546453e+01 1.4036652684109070e+01 -1 0 0
228 444 1 4.1499999999999998e-01 3.1589848865756700e+00 3.1623274061245276e+01 1.2078441253839859e+01 -1 -1 0
168 444 1 4.1499999999999998e-01 3.1203237889608322e+00 3.1103319552052877e+01 1.7755775581655524e+01 3 1 0
166 444 2 -8.2999999999999996e-01 2.6755425584393815e+00 3.0281266305336242e+01 1.7549304436220524e+01 3 1 0
1632 444 1 4.1499999999999998e-01 3.5475203775536119e+00 2.8741305097880222e+01 1.7545952043115758e+01 -1 1 0
3054 444 4 0.0000000000000000e+00 5.2898399999999999e+00 6.6205000000000003e-01 0.0000000000000000e+00 0 0 0
3055 444 4 0.0000000000000000e+00 5.2739300000000000e+00 6.6298000000000001e-01 3.5972000000000000e+00 0 0 0
3057 444 4 0.0000000000000000e+00 5.2898399999999999e+00 2.4790000000000001e+00 1.8169999999999999e+00 0 0 0
233 444 1 4.1499999999999998e-01 4.6755201957650998e+00 1.9364716072314081e-01 6.3117890703612636e+00 -1 0 0
232 444 2 -8.2999999999999996e-01 5.4194234124285918e+00 7.2441611193269195e-01 6.5966121908383553e+00 -1 0 0