LAMMPS data file via write_data, version 11 Aug 2017, timestep = 1000000

3576 atoms
13 atom types
2024 bonds
5 bond types
1018 angles
5 angle types
12 dihedrals
4 dihedral types
9 impropers
1 improper types

0.0000000000000000e+00 3.2704500000000003e+01 xlo xhi
0.0000000000000000e+00 3.2704500000000003e+01 ylo yhi
0.0000000000000000e+00 8.0000000000000000e+01 zlo zhi

Masses

1 1.0079
2 15.9994
3 39.0983
4 63.546
5 15.9994
6 12.011
7 12.011
8 1.0079
9 12.011
10 15.9994
11 15.9994
12 15.9994
13 1.0079

Bond Coeffs # harmonic

1 450 0.9572
2 570 1.229
3 450 1.364
4 570 1.229
5 553 0.945

Angle Coeffs # harmonic

1 100 123.32
2 85 124
3 55 104.52
4 35 113
5 100 123.32

Dihedral Coeffs # charmm

1 0.922 1 180 0
2 3.741 2 0 0
3 0.922 1 0 0
4 3.741 2 180 0

Improper Coeffs # umbrella

1 21 0

Atoms # full

3049 444 4 0.0000000000000000e+00 1.6704399999999999e+00 6.7142999999999997e-01 3.5839900000000000e+00 0 0 0
3051 444 4 0.0000000000000000e+00 1.6560500000000000e+00 2.4790000000000001e+00 1.8169999999999999e+00 0 0 0
3060 444 4 0.0000000000000000e+00 1.6560500000000000e+00 6.6205000000000003e-01 0.0000000000000000e+00 0 0 0
2042 444 1 4.1499999999999998e-01 1.2032243801934486e+00 2.0038011401789557e+00 6.5265697604828627e+00 1 0 0
2038 444 2 -8.2999999999999996e-01 1.7468633812821894e+00 1.3063512429052515e+00 6.8929742169382333e+00 1 0 0
283 444 2 -8.2999999999999996e-01 6.7178948572616837e-01 3.7044030071945886e+00 6.7559306091853042e+00 1 0 0
302 444 1 4.1499999999999998e-01 3.2944138922927840e-01 3.0950007166501431e-01 9.4354366079349514e+00 2 -3 0
963 444 1 4.1499999999999998e-01 1.3689893769526533e+00 2.4390029647748532e+00 9.9095620161481115e+00 0 -3 0
2215 444 2 -8.2999999999999996e-01 9.7504866567798698e-01 2.3037821612370002e+00 1.4298160990664297e+01 -2 -1 0
2030 444 1 4.1499999999999998e-01 3.2243921778695933e-01 7.2297269609158799e-01 1.4217720937669975e+01 0 2 0
962 444 1 4.1499999999999998e-01 6.9941137223508509e-01 3.0544898716536051e+00 8.6992991012988892e+00 0 -3 0
961 444 2 -8.2999999999999996e-01 1.0695689992239958e+00 3.2756980520043881e+00 9.5538647005705393e+00 0 -3 0
2216 444 1 4.1499999999999998e-01 1.8850127142033499e+00 2.5658360916816720e+00 1.4437896727398968e+01 -2 -1 0
2217 444 1 4.1499999999999998e-01 5.5633681462874918e-01 3.0797669945692490e+00 1.3925655806875355e+01 -2 -1 0
1942 444 2 -8.2999999999999996e-01 5.3990214979433926e-01 2.5289941031646479e+00 1.8849942487003329e+01 4 1 0
1943 444 1 4.1499999999999998e-01 2.1479689873556161e-02 3.2014608597670082e+00 1.9291823022775855e+01 4 1 0
1349 444 1 4.1499999999999998e-01 1.7028535784834502e+00 1.7567959847823758e+00 1.7875780257235110e+01 3 1 0
1350 444 1 4.1499999999999998e-01 1.6099447718776185e+00 1.4301917926201231e+00 1.6400452276815422e+01 3 1 0
1758 444 1 4.1499999999999998e-01 1.7818421733989136e+00 3.9021875968663076e+00 1.9750321644698481e+01 2 -1 0
3066 444 4 0.0000000000000000e+00 1.6560500000000000e+00 4.2959500000000004e+00 0.0000000000000000e+00 0 0 0
3067 444 4 0.0000000000000000e+00 1.6756400000000000e+00 4.2766999999999999e+00 3.5710899999999999e+00 0 0 0
3069 444 4 0.0000000000000000e+00 1.6560500000000000e+00 6.1128000000000000e+00 1.8169999999999999e+00 0 0 0
3086 444 4 0.0000000000000000e+00 1.6560500000000000e+00 7.9297500000000003e+00 0.0000000000000000e+00 0 0 0
3087 444 4 0.0000000000000000e+00 1.6939700000000000e+00 7.9450799999999999e+00 3.5632199999999998e+00 0 0 0
2141 444 1 4.1499999999999998e-01 1.6510625868800830e+00 7.0566779030677811e+00 6.6699250095031983e+00 1 0 0
2140 444 2 -8.2999999999999996e-01 1.8983176345080615e+00 6.4569634857720501e+00 7.3737995503830813e+00 1 0 0
284 444 1 4.1499999999999998e-01 1.0396134956828711e+00 4.5668752166841289e+00 6.9484901749084536e+00 1 0 0
1807 444 2 -8.2999999999999996e-01 4.6370567416706232e-01 5.5970971774642422e+00 1.3131786951862711e+01 1 -5 0
102 444 1 4.1499999999999998e-01 4.5311193429494268e-01 7.1016561750638747e+00 1.0243333543873353e+01 3 1 0
100 444 2 -8.2999999999999996e-01 9.3284098482087552e-01 7.4190613918351547e+00 9.4782543231162997e+00 3 1 0
891 444 1 4.1499999999999998e-01 1.9265203354673750e+00 5.3212502299365543e+00 1.2242623218705743e+01 2 0 0
2142 444 1 4.1499999999999998e-01 1.4585561150410058e+00 6.8037153878358296e+00 8.1500758082166005e+00 1 0 0
1808 444 1 4.1499999999999998e-01 8.2887781318901108e-02 5.9921004737202486e+00 1.3916122962691148e+01 1 -5 0
1700 444 1 4.1499999999999998e-01 1.3854925163706440e+00 6.0461896847114076e+00 1.9091984159479026e+01 2 -3 0
1699 444 2 -8.2999999999999996e-01 8.7729240986358370e-01 6.6963630634751103e+00 1.8606969210788698e+01 2 -3 0
1701 444 1 4.1499999999999998e-01 1.5351158652618662e+00 7.2518607204731067e+00 1.8188731521876658e+01 2 -3 0
3089 444 4 0.0000000000000000e+00 1.6560500000000000e+00 9.7467000000000006e+00 1.8169999999999999e+00 0 0 0
3109 444 4 0.0000000000000000e+00 1.6704399999999999e+00 1.1572929999999999e+01 3.5839900000000000e+00 0 0 0
3120 444 4 0.0000000000000000e+00 1.6560500000000000e+00 1.1563549999999999e+01 0.0000000000000000e+00 0 0 0
570 444 1 4.1499999999999998e-01 1.1463192459528169e+00 9.1007201537100144e+00 6.6649972124540593e+00 4 0 0
1684 444 2 -8.2999999999999996e-01 1.8917852544032958e+00 1.1638070932978239e+01 7.2784781566143639e+00 0 -2 0
218 444 1 4.1499999999999998e-01 3.6577743889544873e-01 1.0843469463572189e+01 9.7525761261945938e+00 1 2 0
2512 444 2 -8.2999999999999996e-01 7.4206368279969159e-01 1.1521654864148244e+01 1.1619033443356949e+01 -1 3 0
2513 444 1 4.1499999999999998e-01 2.9921762889011283e-01 1.0678992745590467e+01 1.1719232124529805e+01 -1 3 0
101 444 1 4.1499999999999998e-01 7.5994991975862314e-01 8.3603435910565231e+00 9.4601018439026898e+00 3 1 0
2636 444 1 4.1499999999999998e-01 1.7665657263653758e+00 9.9665102698677863e+00 1.4487040510900218e+01 1 2 0
2081 444 1 4.1499999999999998e-01 1.0068049282386196e+00 8.2393495018221685e+00 1.5572930942571361e+01 1 1 0
2080 444 2 -8.2999999999999996e-01 3.3846720728210172e-01 8.4956381440135029e+00 1.4937420648968251e+01 1 1 0
217 444 2 -8.2999999999999996e-01 5.0158814855569755e-01 1.0171067384319464e+01 9.0849957270058841e+00 1 2 0
219 444 1 4.1499999999999998e-01 1.0189325196906587e+00 1.0606532807316356e+01 8.4075315770805172e+00 1 2 0
200 444 1 4.1499999999999998e-01 3.9657233151332121e-02 8.7417959729751455e+00 1.3365436865206973e+01 2 0 0
2514 444 1 4.1499999999999998e-01 5.9180112597145662e-01 1.1972058203839699e+01 1.2450171112748615e+01 -1 3 0
1482 444 1 4.1499999999999998e-01 1.1544417322260323e+00 1.1038136691002570e+01 1.9897658930369513e+01 2 -3 0
1147 444 2 -8.2999999999999996e-01 4.4102633098013866e-01 9.5696203817686083e+00 1.8464213500491894e+01 1 3 0
1149 444 1 4.1499999999999998e-01 1.2867356875761604e+00 9.5492634136294416e+00 1.8016337004358370e+01 1 3 0
1148 444 1 4.1499999999999998e-01 3.6087660445114716e-01 8.7041194539698648e+00 1.8865107810072089e+01 1 3 0
3111 444 4 0.0000000000000000e+00 1.6560500000000000e+00 1.3380500000000000e+01 1.8169999999999999e+00 0 0 0
3126 444 4 0.0000000000000000e+00 1.6560500000000000e+00 1.5197450000000000e+01 0.0000000000000000e+00 0 0 0
3127 444 4 0.0000000000000000e+00 1.6756400000000000e+00 1.5178200000000000e+01 3.5710899999999999e+00 0 0 0
2423 444 1 4.1499999999999998e-01 3.3517095991904466e-01 1.4342560353064377e+01 6.4100033298493377e+00 -2 2 0
1686 444 1 4.1499999999999998e-01 1.7335040702884876e+00 1.2326254495060443e+01 7.9246841878532770e+00 0 -2 0
464 444 1 4.1499999999999998e-01 8.3039214134038297e-01 1.4937322065889800e+01 1.5382187321321531e+01 1 -8 0
2491 444 2 -8.2999999999999996e-01 1.5380778265342243e+00 1.3265180933331912e+01 1.4664910586584419e+01 -1 -1 0
1864 444 2 -8.2999999999999996e-01 9.1235659480344666e-01 1.3172453146894421e+01 9.3865847983739865e+00 0 6 0
1865 444 1 4.1499999999999998e-01 6.2876816215176101e-01 1.2849626001520788e+01 1.0241916688468601e+01 0 6 0
2528 444 1 4.1499999999999998e-01 1.8481497267615508e+00 1.6075307655624616e+01 8.2873575882880388e+00 0 -5 0
1866 444 1 4.1499999999999998e-01 4.2513574382786568e-01 1.3987203209386879e+01 9.2639866033422749e+00 0 6 0
239 444 1 4.1499999999999998e-01 6.1057494895663318e-02 1.6174531400263504e+01 1.1795074041291908e+01 6 1 0
2493 444 1 4.1499999999999998e-01 1.7562509089315894e+00 1.2335781115831878e+01 1.4595280653797815e+01 -1 -1 0
1710 444 1 4.1499999999999998e-01 1.2988442846946855e+00 1.3547570254105361e+01 1.6863839329099751e+01 1 0 0
465 444 1 4.1499999999999998e-01 7.1725218674354663e-01 1.6147920657953698e+01 1.6284154936836973e+01 1 -8 0
463 444 2 -8.2999999999999996e-01 3.4270538307807452e-01 1.5280467599509123e+01 1.6130949665780470e+01 1 -8 0
1708 444 2 -8.2999999999999996e-01 1.4601373081902820e+00 1.2904962564020391e+01 1.7554688342014082e+01 1 0 0
1709 444 1 4.1499999999999998e-01 5.8727813047752431e-01 1.2646494203183758e+01 1.7850566681001094e+01 1 0 0
3129 444 4 0.0000000000000000e+00 1.6560500000000000e+00 1.7014299999999999e+01 1.8169999999999999e+00 0 0 0
3146 444 4 0.0000000000000000e+00 1.6560500000000000e+00 1.8831250000000001e+01 0.0000000000000000e+00 0 0 0
3147 444 4 0.0000000000000000e+00 1.6939700000000000e+00 1.8846579999999999e+01 3.5632199999999998e+00 0 0 0
2288 444 1 4.1499999999999998e-01 1.8409992568556837e+00 1.8976499713976544e+01 7.3292642662160148e+00 4 0 0
2682 444 1 4.1499999999999998e-01 1.9364219469181601e+00 1.6859162919090505e+01 1.2936279143816659e+01 -1 -5 0
2529 444 1 4.1499999999999998e-01 1.1817522271523115e+00 1.7286486359475660e+01 8.9044928615121535e+00 0 -5 0
661 444 2 -8.2999999999999996e-01 9.3642522808626072e-01 1.9237623319517827e+01 8.9142293362911502e+00 2 1 0
238 444 2 -8.2999999999999996e-01 8.3284215215687196e-01 1.6709687877290239e+01 1.1610174490297304e+01 6 1 0
2527 444 2 -8.2999999999999996e-01 1.6342898642710348e+00 1.6473970438939411e+01 9.1309002269585982e+00 0 -5 0
240 444 1 4.1499999999999998e-01 1.0217482048733175e+00 1.6547188279544294e+01 1.0685977402393668e+01 6 1 0
663 444 1 4.1499999999999998e-01 2.7341267837289995e-01 1.9319886122227889e+01 9.5997065774077317e+00 2 1 0
662 444 1 4.1499999999999998e-01 1.5353047356536917e+00 1.9967745523911315e+01 9.0707436273749540e+00 2 1 0
416 444 1 4.1499999999999998e-01 2.0165342575263184e-01 1.8500543321035742e+01 1.1428043169566518e+01 2 -4 0
1385 444 1 4.1499999999999998e-01 2.0066738336490624e+00 1.7772608694352396e+01 1.9795937463838175e+01 1 -2 0
1384 444 2 -8.2999999999999996e-01 1.5560937139376128e+00 1.7629553080856066e+01 1.8963624245105279e+01 1 -2 0
2412 444 1 4.1499999999999998e-01 3.4575211958165347e-01 1.8446258619213275e+01 1.7966753785607423e+01 -4 5 0
1109 444 1 4.1499999999999998e-01 2.0177762711380787e+00 1.8188500937844317e+01 1.6027094446403115e+01 -1 -2 0
3149 444 4 0.0000000000000000e+00 1.6560500000000000e+00 2.0648199999999999e+01 1.8169999999999999e+00 0 0 0
3169 444 4 0.0000000000000000e+00 1.6704399999999999e+00 2.2474430000000002e+01 3.5839900000000000e+00 0 0 0
3171 444 4 0.0000000000000000e+00 1.6560500000000000e+00 2.4282000000000000e+01 1.8169999999999999e+00 0 0 0
3180 444 4 0.0000000000000000e+00 1.6560500000000000e+00 2.2465050000000002e+01 0.0000000000000000e+00 0 0 0
1347 444 1 4.1499999999999998e-01 6.2529319372923886e-01 2.1023557776896968e+01 6.9506028260814574e+00 1 -1 0
2701 444 2 -8.2999999999999996e-01 1.8669724642326263e-01 2.4344097913208287e+01 6.4906581573994044e+00 -1 2 0
2702 444 1 4.1499999999999998e-01 1.0719637090941454e-01 2.3401242234315571e+01 6.6353459796030965e+00 -1 2 0
2703 444 1 4.1499999999999998e-01 1.1296775931624563e+00 2.4500430108351857e+01 6.4398635947384744e+00 -1 2 0
2275 444 2 -8.2999999999999996e-01 9.3011794496680744e-01 2.1172102075849200e+01 1.3149517453825936e+01 1 1 0
1838 444 1 4.1499999999999998e-01 1.2978363201750291e+00 2.4131528223347871e+01 9.4789876420015702e+00 0 3 0
2276 444 1 4.1499999999999998e-01 4.9102369815277602e-01 2.1147719002406770e+01 1.2299321151901987e+01 1 1 0
833 444 1 4.1499999999999998e-01 4.8979761467646771e-01 2.1963477389385801e+01 1.4681705090864233e+01 -2 0 0
832 444 2 -8.2999999999999996e-01 4.0342033064790028e-01 2.2525702138719186e+01 1.5451558995015121e+01 -2 0 0
2277 444 1 4.1499999999999998e-01 1.8597652903653286e+00 2.1076954283151089e+01 1.2942309544013131e+01 1 1 0
545 444 1 4.1499999999999998e-01 1.5353564062073961e+00 2.4289288833490954e+01 1.2493611970658815e+01 3 -5 0
834 444 1 4.1499999999999998e-01 1.9545157503713995e-02 2.3335571454925155e+01 1.5115428958465730e+01 -2 0 0
2548 444 2 -8.2999999999999996e-01 1.8353662888464075e+00 2.2703716814490928e+01 1.7652730834097877e+01 -4 4 0
2549 444 1 4.1499999999999998e-01 1.0746334694773376e+00 2.2422935690505373e+01 1.7144124513582288e+01 -4 4 0
3186 444 4 0.0000000000000000e+00 1.6560500000000000e+00 2.6098949999999999e+01 0.0000000000000000e+00 0 0 0
3187 444 4 0.0000000000000000e+00 1.6756400000000000e+00 2.6079699999999999e+01 3.5710899999999999e+00 0 0 0
3189 444 4 0.0000000000000000e+00 1.6560500000000000e+00 2.7915800000000001e+01 1.8169999999999999e+00 0 0 0
1797 444 1 4.1499999999999998e-01 8.0087097602228152e-01 2.6778522871978584e+01 6.5960069672021824e+00 -1 0 0
1795 444 2 -8.2999999999999996e-01 1.6637569327433273e+00 2.7020785129476661e+01 6.9321155753785844e+00 -1 0 0
1175 444 1 4.1499999999999998e-01 1.3888888207483682e-02 2.4940671668644264e+01 1.4080859337728608e+01 1 0 0
1598 444 1 4.1499999999999998e-01 1.3690171686120352e+00 2.7217262286244658e+01 1.5400606141598093e+01 -1 2 0
79 444 2 -8.2999999999999996e-01 8.1315647639106370e-01 2.7657501462305614e+01 1.3710678898754912e+01 1 0 0
84 444 1 4.1499999999999998e-01 1.8388915090127882e+00 2.7197114121845683e+01 1.1866117344571954e+01 -1 -2 0
1174 444 2 -8.2999999999999996e-01 2.2205981312190615e-01 2.4993479587037829e+01 1.3148063161182499e+01 1 0 0
1837 444 2 -8.2999999999999996e-01 5.7316954155167299e-01 2.4726575042409468e+01 9.2866096287913589e+00 0 3 0
1839 444 1 4.1499999999999998e-01 4.3852056975435061e-01 2.4643438034947078e+01 8.3425810197463282e+00 0 3 0
81 444 1 4.1499999999999998e-01 1.0567438487360750e+00 2.8582967929719057e+01 1.3730899086777301e+01 1 0 0
2634 444 1 4.1499999999999998e-01 2.9621134398036253e-01 2.6764317524922284e+01 1.7525646835739895e+01 -3 0 0
1597 444 2 -8.2999999999999996e-01 1.5505222910017482e+00 2.7002712454328762e+01 1.6315623120387645e+01 -1 2 0
1358 444 1 4.1499999999999998e-01 1.9886702877649733e+00 2.8048384494521351e+01 1.7912771649286753e+01 4 3 0
3206 444 4 0.0000000000000000e+00 1.6560500000000000e+00 2.9732749999999999e+01 0.0000000000000000e+00 0 0 0
3207 444 4 0.0000000000000000e+00 1.6939700000000000e+00 2.9748080000000002e+01 3.5632199999999998e+00 0 0 0
3209 444 4 0.0000000000000000e+00 1.6560500000000000e+00 3.1549700000000001e+01 1.8169999999999999e+00 0 0 0
955 444 2 -8.2999999999999996e-01 1.2210553872470707e-01 3.1870944701154485e+01 6.8019478157885862e+00 -1 2 0
956 444 1 4.1499999999999998e-01 5.7560147828040409e-01 3.1028143764632162e+01 6.7858111491749407e+00 -1 2 0
384 444 1 4.1499999999999998e-01 1.6964857727067553e+00 2.8803420212181017e+01 6.6819900442860405e+00 3 -1 0
957 444 1 4.1499999999999998e-01 8.2032983952139749e-01 3.2520748471271006e+01 6.7215068214699771e+00 -1 2 0
382 444 2 -8.2999999999999996e-01 2.0238760472257291e+00 2.9701635178420695e+01 6.6344783685401074e+00 3 -1 0
1388 444 1 4.1499999999999998e-01 1.5109665933860559e+00 2.9565701070301774e+01 8.9900100953823632e+00 -3 -4 0
2034 444 1 4.1499999999999998e-01 9.2304112946054551e-01 3.0984968366145758e+01 1.4328414713768346e+01 3 0 0
1389 444 1 4.1499999999999998e-01 1.6605232071680252e+00 2.9443734060614794e+01 1.0491559932776381e+01 -3 -4 0
1387 444 2 -8.2999999999999996e-01 1.0250324076728055e+00 2.9660187220749769e+01 9.8092611800947083e+00 -3 -4 0
2032 444 2 -8.2999999999999996e-01 1.3486132022389623e+00 3.0141277029556761e+01 1.4175754463460212e+01 3 0 0
1359 444 1 4.1499999999999998e-01 1.1478967169385481e+00 2.9300146963485695e+01 1.8047254846550423e+01 4 3 0
1357 444 2 -8.2999999999999996e-01 1.8117078218656220e+00 2.8781688009641254e+01 1.8501993757919102e+01 4 3 0
1092 444 1 4.1499999999999998e-01 2.6763962480637393e-01 3.1155808028946495e+01 1.9141381401627406e+01 -3 1 0
3050 444 4 0.0000000000000000e+00 3.4729999999999999e+00 6.6205000000000003e-01 1.8169999999999999e+00 0 0 0
3074 444 4 0.0000000000000000e+00 3.4794800000000001e+00 2.4716200000000002e+00 3.5876800000000002e+00 0 0 0
3075 444 4 0.0000000000000000e+00 3.4729999999999999e+00 2.4790000000000001e+00 0.0000000000000000e+00 0 0 0
2040 444 1 4.1499999999999998e-01 2.5856937350198210e+00 1.7283834747495448e+00 7.0786736192650075e+00 1 0 0
193 444 2 -8.2999999999999996e-01 3.9856930712917302e+00 2.9127372173120074e+00 6.7036459871902432e+00 1 0 0
925 444 2 -8.2999999999999996e-01 2.9815518291288901e+00 7.0788539061801992e-01 1.1473357136348858e+01 1 0 0
926 444 1 4.1499999999999998e-01 3.4972593349468393e+00 7.8023089374056098e-01 1.0670210340825045e+01 1 0 0
927 444 1 4.1499999999999998e-01 2.7453156763927429e+00 1.6100731294624442e+00 1.1688953685797484e+01 1 0 0
874 444 2 -8.2999999999999996e-01 3.5767020512339256e+00 3.0606549079429417e+00 1.4099397293605747e+01 1 -2 0
876 444 1 4.1499999999999998e-01 3.9445018342444480e+00 2.1770605569893737e+00 1.4114126713935191e+01 1 -2 0
1526 444 1 4.1499999999999998e-01 4.0513827734506327e+00 2.7207374173045301e-01 1.2850372528328686e+01 0 -2 0
2262 444 1 4.1499999999999998e-01 3.8274228891025817e+00 3.1032531134575153e-01 1.7927160309057030e+01 4 1 0
1348 444 2 -8.2999999999999996e-01 2.1815752557762220e+00 1.3349133378470006e+00 1.7162287144095306e+01 3 1 0
2676 444 1 4.1499999999999998e-01 3.8978291286774462e+00 2.6515375801298386e+00 1.7613799753535581e+01 3 2 0
3064 444 4 0.0000000000000000e+00 3.4729999999999999e+00 6.1128000000000000e+00 0.0000000000000000e+00 0 0 0
3065 444 4 0.0000000000000000e+00 3.4813999999999998e+00 6.1070599999999997e+00 3.5774300000000001e+00 0 0 0
3068 444 4 0.0000000000000000e+00 3.4729999999999999e+00 4.2959500000000004e+00 1.8169999999999999e+00 0 0 0
3088 444 4 0.0000000000000000e+00 3.4729999999999999e+00 7.9297500000000003e+00 1.8169999999999999e+00 0 0 0
164 444 1 4.1499999999999998e-01 3.5830770437319601e+00 5.5099249506203867e+00 6.6596447792930737e+00 2 -1 0
889 444 2 -8.2999999999999996e-01 2.6765842941127316e+00 4.8975140222316469e+00 1.1825390021901592e+01 2 0 0
2136 444 1 4.1499999999999998e-01 2.8662222977395433e+00 5.1803670308574361e+00 1.0044640383954652e+01 -1 1 0
2134 444 2 -8.2999999999999996e-01 3.3670604944148108e+00 5.0738229781353485e+00 9.2359114522319494e+00 -1 1 0
890 444 1 4.1499999999999998e-01 2.8626998700596640e+00 4.1393986087290076e+00 1.2379333923298725e+01 2 0 0
2135 444 1 4.1499999999999998e-01 2.7752298152844515e+00 5.3735091333142879e+00 8.5458701682061946e+00 -1 1 0
1489 444 2 -8.2999999999999996e-01 3.7302875094436914e+00 6.2876553714254584e+00 1.7672781051989809e+01 -4 1 0
1756 444 2 -8.2999999999999996e-01 2.5861425768015915e+00 4.4121650520964382e+00 1.9846529277701229e+01 2 -1 0
1490 444 1 4.1499999999999998e-01 3.7779677991351455e+00 5.6054728408500765e+00 1.8342546228960412e+01 -4 1 0
1491 444 1 4.1499999999999998e-01 3.9991411918745703e+00 5.8501098257163289e+00 1.6865004266559932e+01 -4 1 0
2076 444 1 4.1499999999999998e-01 3.0133819675768705e+00 7.9263741837443806e+00 1.6378937461294075e+01 0 3 0
3084 444 4 0.0000000000000000e+00 3.4729999999999999e+00 9.7467000000000006e+00 0.0000000000000000e+00 0 0 0
3085 444 4 0.0000000000000000e+00 3.4817000000000000e+00 9.7606800000000007e+00 3.5841200000000000e+00 0 0 0
3110 444 4 0.0000000000000000e+00 3.4729999999999999e+00 1.1563549999999999e+01 1.8169999999999999e+00 0 0 0
1233 444 1 4.1499999999999998e-01 3.7179748116841900e+00 8.3805567033480983e+00 6.4415640410275943e+00 2 0 0
1685 444 1 4.1499999999999998e-01 2.5458419780338231e+00 1.2010196015364521e+01 6.6869001521651334e+00 0 -2 0
569 444 1 4.1499999999999998e-01 2.3106937599292503e+00 1.0067036087152855e+01 6.6164105732377889e+00 4 0 0
568 444 2 -8.2999999999999996e-01 2.0460789554140364e+00 9.1865931918133619e+00 6.3498938603894910e+00 4 0 0
1738 444 2 -8.2999999999999996e-01 3.8257507071671339e+00 8.6635387696318009e+00 9.2110629075833792e+00 5 -1 0
1801 444 2 -8.2999999999999996e-01 3.5716129556859593e+00 1.0882923685617316e+01 1.1649719332795698e+01 -2 -1 0
2635 444 2 -8.2999999999999996e-01 2.1986127210074908e+00 1.0766781693491493e+01 1.4188488660323481e+01 1 2 0
1803 444 1 4.1499999999999998e-01 3.0172628741089880e+00 1.1578241685558453e+01 1.1295514993000920e+01 -2 -1 0
1802 444 1 4.1499999999999998e-01 3.0293761320967283e+00 1.0459161896431278e+01 1.2315029025960465e+01 -2 -1 0
2637 444 1 4.1499999999999998e-01 3.0143913001766887e+00 1.0799809517878076e+01 1.4688135025081575e+01 1 2 0
1739 444 1 4.1499999999999998e-01 2.8919842748951941e+00 8.7144925469752241e+00 9.4153076563170632e+00 5 -1 0
2074 444 2 -8.2999999999999996e-01 2.5089693708624132e+00 8.6890217460489474e+00 1.6662078282810910e+01 0 3 0
1960 444 2 -8.2999999999999996e-01 3.7737848184356246e+00 1.1106910326278593e+01 1.7013455464900712e+01 0 0 0
1962 444 1 4.1499999999999998e-01 3.1124174213632863e+00 1.1764719464526015e+01 1.7228193935873687e+01 0 0 0
2075 444 1 4.1499999999999998e-01 3.1696351987932796e+00 9.3275250114422121e+00 1.6930532526076412e+01 0 3 0
3128 444 4 0.0000000000000000e+00 3.4729999999999999e+00 1.5197450000000000e+01 1.8169999999999999e+00 0 0 0
3134 444 4 0.0000000000000000e+00 3.4794800000000001e+00 1.3373120000000000e+01 3.5876800000000002e+00 0 0 0
3135 444 4 0.0000000000000000e+00 3.4729999999999999e+00 1.3380500000000000e+01 0.0000000000000000e+00 0 0 0
2130 444 1 4.1499999999999998e-01 2.8998181248231369e+00 1.4415588778467544e+01 6.0113120200435315e+00 0 -4 0
2129 444 1 4.1499999999999998e-01 2.9320769244531131e+00 1.5909578290330588e+01 6.2539024405921460e+00 0 -4 0
2128 444 2 -8.2999999999999996e-01 2.3303659849824991e+00 1.5177154901901110e+01 6.1207399914329903e+00 0 -4 0
2707 444 2 -8.2999999999999996e-01 4.0643031664306495e+00 1.3253351727402547e+01 6.2847644647054528e+00 -3 0 0
1585 444 2 -8.2999999999999996e-01 3.8230137842954028e+00 1.4275381663271505e+01 1.5192198104091606e+01 3 3 0
2492 444 1 4.1499999999999998e-01 2.2973323627467561e+00 1.3658338025286593e+01 1.5095249894144692e+01 -1 -1 0
744 444 1 4.1499999999999998e-01 3.0967362432045018e+00 1.3856528663766998e+01 1.8458796486521116e+01 7 -2 0
742 444 2 -8.2999999999999996e-01 3.8175497680980048e+00 1.4181097978013470e+01 1.8998531950338958e+01 7 -2 0
3124 444 4 0.0000000000000000e+00 3.4729999999999999e+00 1.7014299999999999e+01 0.0000000000000000e+00 0 0 0
3125 444 4 0.0000000000000000e+00 3.4813999999999998e+00 1.7008559999999999e+01 3.5774300000000001e+00 0 0 0
3148 444 4 0.0000000000000000e+00 3.4729999999999999e+00 1.8831250000000001e+01 1.8169999999999999e+00 0 0 0
2289 444 1 4.1499999999999998e-01 2.9913240102616871e+00 1.8580925639622709e+01 6.4280597324975171e+00 4 0 0
2287 444 2 -8.2999999999999996e-01 2.3532253155841349e+00 1.9278249550290312e+01 6.5790618878450768e+00 4 0 0
2681 444 1 4.1499999999999998e-01 3.3823173798154587e+00 1.7292851839546291e+01 1.2821408074814464e+01 -1 -5 0
1927 444 2 -8.2999999999999996e-01 3.2778871102336842e+00 1.9973212116617162e+01 1.2323876299246894e+01 1 -3 0
2680 444 2 -8.2999999999999996e-01 2.7125774813826764e+00 1.7053036987375730e+01 1.3461852448635014e+01 -1 -5 0
887 444 1 4.1499999999999998e-01 3.2835460909857361e+00 1.7182614179512420e+01 9.9894744658439887e+00 -1 -3 0
1929 444 1 4.1499999999999998e-01 2.9204289617946468e+00 1.9394021439261490e+01 1.2996924695113837e+01 1 -3 0
1110 444 1 4.1499999999999998e-01 2.8236592372312179e+00 1.7177977607130440e+01 1.5238874723848705e+01 -1 -2 0
2781 444 1 4.1499999999999998e-01 4.0379698152802588e+00 1.6744578221521692e+01 1.6902348935278042e+01 5 3 0
1108 444 2 -8.2999999999999996e-01 2.6541380423395271e+00 1.7481035960887990e+01 1.6130866911689207e+01 -1 -2 0
1386 444 1 4.1499999999999998e-01 2.2600657026109254e+00 1.7554952923307820e+01 1.8319348897761348e+01 1 -2 0
3144 444 4 0.0000000000000000e+00 3.4729999999999999e+00 2.0648199999999999e+01 0.0000000000000000e+00 0 0 0
3145 444 4 0.0000000000000000e+00 3.4817000000000000e+00 2.0662179999999999e+01 3.5841200000000000e+00 0 0 0
3170 444 4 0.0000000000000000e+00 3.4729999999999999e+00 2.2465050000000002e+01 1.8169999999999999e+00 0 0 0
3194 444 4 0.0000000000000000e+00 3.4794800000000001e+00 2.4274619999999999e+01 3.5876800000000002e+00 0 0 0
3195 444 4 0.0000000000000000e+00 3.4729999999999999e+00 2.4282000000000000e+01 0.0000000000000000e+00 0 0 0
1355 444 1 4.1499999999999998e-01 2.8338108835081623e+00 2.3619746824266606e+01 6.3532333551642601e+00 1 -6 0
1502 444 1 4.1499999999999998e-01 2.8911267087042520e+00 2.1942272958356376e+01 7.9565850429806630e+00 4 0 0
1503 444 1 4.1499999999999998e-01 2.9126390920580820e+00 2.0892560564931895e+01 6.8659255532635681e+00 4 0 0
1501 444 2 -8.2999999999999996e-01 3.0180441277083552e+00 2.1832309834380393e+01 7.0142302491858199e+00 4 0 0
936 444 1 4.1499999999999998e-01 2.3446925437644199e+00 2.2765332606576493e+01 1.0451614317025996e+01 2 1 0
2065 444 2 -8.2999999999999996e-01 3.5750276380782791e+00 2.3286647381744036e+01 1.5857245674664913e+01 0 -1 0
546 444 1 4.1499999999999998e-01 2.4021258700915764e+00 2.3169239161007322e+01 1.3028489994533157e+01 3 -5 0
934 444 2 -8.2999999999999996e-01 2.5489815147128119e+00 2.2315293511533220e+01 9.6318810206580956e+00 2 1 0
544 444 2 -8.2999999999999996e-01 2.2335550120989445e+00 2.3685495109577371e+01 1.2240266998376633e+01 3 -5 0
935 444 1 4.1499999999999998e-01 3.4727369776022354e+00 2.2077718624612398e+01 9.7122916915222124e+00 2 1 0
263 444 1 4.1499999999999998e-01 3.8012979019389279e+00 2.4323229474125835e+01 1.1552139528718360e+01 1 -1 0
2066 444 1 4.1499999999999998e-01 3.7961528545332222e+00 2.2422426192620485e+01 1.5510176227409705e+01 0 -1 0
2067 444 1 4.1499999999999998e-01 2.9791983572316347e+00 2.3107841159320444e+01 1.6584739678620164e+01 0 -1 0
2550 444 1 4.1499999999999998e-01 2.2655675572291587e+00 2.1888556964415272e+01 1.7910943678814736e+01 -4 4 0
477 444 1 4.1499999999999998e-01 4.0106175798539239e+00 2.1078046231158158e+01 1.9403396092517152e+01 1 3 0
475 444 2 -8.2999999999999996e-01 3.7620276339268499e+00 2.0808553018697484e+01 1.8519196894959936e+01 1 3 0
651 444 1 4.1499999999999998e-01 2.2198797435687028e+00 2.3736956339884127e+01 1.9074470646587027e+01 0 -2 0
649 444 2 -8.2999999999999996e-01 2.5647388633468764e+00 2.4421871031015879e+01 1.9647354521336151e+01 0 -2 0
3184 444 4 0.0000000000000000e+00 3.4729999999999999e+00 2.7915800000000001e+01 0.0000000000000000e+00 0 0 0
3185 444 4 0.0000000000000000e+00 3.4813999999999998e+00 2.7910060000000001e+01 3.5774300000000001e+00 0 0 0
3188 444 4 0.0000000000000000e+00 3.4729999999999999e+00 2.6098949999999999e+01 1.8169999999999999e+00 0 0 0
1796 444 1 4.1499999999999998e-01 2.2411562320994269e+00 2.6314486828554273e+01 6.6423134342040191e+00 -1 0 0
1354 444 2 -8.2999999999999996e-01 2.9596018896932490e+00 2.4556602045922141e+01 6.5039341863882427e+00 1 -6 0
1356 444 1 4.1499999999999998e-01 3.5118834819710161e+00 2.4602099845525558e+01 7.2844127747564533e+00 1 -6 0
493 444 2 -8.2999999999999996e-01 3.6041028873967944e+00 2.7963778725135292e+01 8.8542636084105713e+00 0 4 0
495 444 1 4.1499999999999998e-01 3.0495317844258962e+00 2.7339284995705633e+01 8.3866202360411943e+00 0 4 0
2558 444 1 4.1499999999999998e-01 3.8696433579352170e+00 2.4972805426921941e+01 1.5848134601358854e+01 -1 -2 0
83 444 1 4.1499999999999998e-01 2.5793178406575157e+00 2.7508430270497904e+01 1.0582861056212817e+01 -1 -2 0
82 444 2 -8.2999999999999996e-01 2.7131051241731257e+00 2.7192046819767828e+01 1.1476300754773337e+01 -1 -2 0
183 444 1 4.1499999999999998e-01 3.7789219523122726e+00 2.7209717943967199e+01 1.2859718214177782e+01 2 -3 0
264 444 1 4.1499999999999998e-01 3.8756412040301527e+00 2.5796378670009197e+01 1.1211259034572940e+01 1 -1 0
494 444 1 4.1499999999999998e-01 3.9052134630232413e+00 2.8570621590308498e+01 8.1780195691854392e+00 0 4 0
650 444 1 4.1499999999999998e-01 3.4575796063022577e+00 2.4568843429465105e+01 1.9335158419536338e+01 0 -2 0
2557 444 2 -8.2999999999999996e-01 3.9571935608096056e+00 2.5913334033551713e+01 1.6002965875545684e+01 -1 -2 0
1599 444 1 4.1499999999999998e-01 2.4697789692966419e+00 2.6735951996727255e+01 1.6321778776229323e+01 -1 2 0
3204 444 4 0.0000000000000000e+00 3.4729999999999999e+00 3.1549700000000001e+01 0.0000000000000000e+00 0 0 0
3205 444 4 0.0000000000000000e+00 3.4817000000000000e+00 3.1563680000000002e+01 3.5841200000000000e+00 0 0 0
3208 444 4 0.0000000000000000e+00 3.4729999999999999e+00 2.9732749999999999e+01 1.8169999999999999e+00 0 0 0
383 444 1 4.1499999999999998e-01 2.9212401054787462e+00 2.9613311951226009e+01 6.3132796242534646e+00 3 -1 0
2339 444 1 4.1499999999999998e-01 2.8392391872814722e+00 3.1094833466028643e+01 6.9533998014348306e+00 -3 1 0
2338 444 2 -8.2999999999999996e-01 3.3292703463946451e+00 3.1838945514988222e+01 7.3032565042507782e+00 -3 1 0
2340 444 1 4.1499999999999998e-01 2.7249436926026136e+00 3.2578045641535873e+01 7.2343158007449002e+00 -3 1 0
836 444 2 -8.2999999999999996e-01 3.7714943781404027e+00 3.0748184609252469e+01 1.5138830242817061e+01 1 -1 0
1287 444 1 4.1499999999999998e-01 2.1309818574546195e+00 3.0446125202266341e+01 1.2418419306347182e+01 2 -1 0
2033 444 1 4.1499999999999998e-01 2.2009890054291192e+00 3.0221496963548542e+01 1.4603834026336688e+01 3 0 0
1286 444 1 4.1499999999999998e-01 2.9703010808994184e+00 3.1607597201518175e+01 1.1930135317667199e+01 2 -1 0
1285 444 2 -8.2999999999999996e-01 2.8240404086643980e+00 3.0670960504778918e+01 1.1797652801102451e+01 2 -1 0
1527 444 1 4.1499999999999998e-01 3.9098849920658196e+00 3.2290106126219762e+01 1.4192250374086044e+01 0 -3 0