LAMMPS data file via write_data, version 11 Aug 2017, timestep = 1000000

3567 atoms
13 atom types
2024 bonds
5 bond types
1018 angles
5 angle types
12 dihedrals
4 dihedral types
9 impropers
1 improper types

0.0000000000000000e+00 3.2704500000000003e+01 xlo xhi
0.0000000000000000e+00 3.2704500000000003e+01 ylo yhi
0.0000000000000000e+00 8.0000000000000000e+01 zlo zhi

Masses

1 1.0079
2 15.9994
3 39.0983
4 63.546
5 15.9994
6 12.011
7 15.9994
8 1.0079
9 12.011
10 15.9994
11 15.9994
12 15.9994
13 1.0079

Bond Coeffs # harmonic

1 450 0.9572
2 570 1.229
3 450 1.364
4 570 1.229
5 553 0.945

Angle Coeffs # harmonic

1 100 123.32
2 85 124
3 55 104.52
4 35 113
5 100 123.32

Dihedral Coeffs # charmm

1 0.922 1 180 0
2 3.741 2 0 0
3 0.922 1 0 0
4 3.741 2 180 0

Improper Coeffs # umbrella

1 21 0

Atoms # full

3049 444 4 0.0000000000000000e+00 1.6646300000000001e+00 6.6500000000000004e-01 3.5918999999999999e+00 0 0 0
3051 444 4 0.0000000000000000e+00 1.6560500000000000e+00 2.4790000000000001e+00 1.8169999999999999e+00 0 0 0
3060 444 4 0.0000000000000000e+00 1.6560500000000000e+00 6.6205000000000003e-01 0.0000000000000000e+00 0 0 0
1068 444 1 4.1499999999999998e-01 6.3266356150125747e-01 2.3030751082776320e+00 6.5975404312652826e+00 0 1 0
1067 444 1 4.1499999999999998e-01 1.3969023343573875e-01 3.7248067003278562e+00 6.4315527825875201e+00 0 1 0
942 444 1 4.1499999999999998e-01 5.0549086004581933e-01 5.2586042792763266e-01 7.4518806107793383e+00 -3 1 0
474 444 1 4.1499999999999998e-01 5.4588745957544138e-01 3.5475702141732723e+00 9.4575108514871218e+00 -3 0 0
2155 444 2 -8.2999999999999996e-01 1.8119561113282530e+00 1.2250683240270666e-01 1.4269129683762323e+01 4 5 0
2156 444 1 4.1499999999999998e-01 1.7145895024705640e+00 4.0526221477832197e-01 1.5178416050914215e+01 4 5 0
1063 444 2 -8.2999999999999996e-01 1.4458274122176087e+00 2.2184197108520278e+00 1.2626363752423307e+01 -3 3 0
1065 444 1 4.1499999999999998e-01 1.6272944485137693e+00 1.8233182383273261e+00 1.3479122247849650e+01 -3 3 0
1769 444 1 4.1499999999999998e-01 7.6811418692064770e-01 1.5318056698770659e+00 1.1319331775645392e+01 2 2 0
1768 444 2 -8.2999999999999996e-01 2.3681593092006928e-01 1.0606137469713406e+00 1.0677512299527699e+01 2 2 0
2462 444 1 4.1499999999999998e-01 1.7477207114884969e+00 2.9528985122494983e-01 1.0050141066544144e+01 2 -1 0
472 444 2 -8.2999999999999996e-01 1.4536932654193662e+00 3.8503491677408248e+00 9.4364067641175513e+00 -3 0 0
1364 444 1 4.1499999999999998e-01 6.3953082362927205e-01 2.7006438395110055e+00 1.7589230939698364e+01 0 -1 0
1363 444 2 -8.2999999999999996e-01 3.5429738627240848e-01 3.5869143828584207e+00 1.7366973324877303e+01 0 -1 0
10 444 2 -8.2999999999999996e-01 1.5411557435548460e+00 1.0647010581403249e+00 1.6955264177371738e+01 2 -1 0
11 444 1 4.1499999999999998e-01 7.0869738620375344e-01 6.7494838648237432e-01 1.7222355545011219e+01 2 -1 0
3066 444 4 0.0000000000000000e+00 1.6560500000000000e+00 4.2959500000000004e+00 0.0000000000000000e+00 0 0 0
3067 444 4 0.0000000000000000e+00 1.6548600000000000e+00 4.2991700000000002e+00 3.5781999999999998e+00 0 0 0
3069 444 4 0.0000000000000000e+00 1.6560500000000000e+00 6.1128000000000000e+00 1.8169999999999999e+00 0 0 0
3086 444 4 0.0000000000000000e+00 1.6560500000000000e+00 7.9297500000000003e+00 0.0000000000000000e+00 0 0 0
3087 444 4 0.0000000000000000e+00 1.6808900000000000e+00 7.9444299999999997e+00 3.5752400000000000e+00 0 0 0
2536 444 2 -8.2999999999999996e-01 1.7017235274245293e+00 5.4211334872571069e+00 6.7107043262255663e+00 4 1 0
2538 444 1 4.1499999999999998e-01 1.0527840684260341e+00 5.9260979937997131e+00 7.2007251277733868e+00 4 1 0
1321 444 2 -8.2999999999999996e-01 8.4912214579107093e-01 6.6554334996741487e+00 9.7697325759411004e+00 1 5 0
789 444 1 4.1499999999999998e-01 1.5618537450237663e-01 7.8686311911172861e+00 1.5052407867179564e+01 -2 2 0
1322 444 1 4.1499999999999998e-01 3.6481328935465662e-01 6.5868625948343356e+00 1.0592517659510039e+01 1 5 0
2358 444 1 4.1499999999999998e-01 4.5660015170142920e-01 4.9358445042840797e+00 1.2663690294862622e+01 2 4 0
1323 444 1 4.1499999999999998e-01 5.3250964513441001e-01 7.4663615463962012e+00 9.3717575929191899e+00 1 5 0
2356 444 2 -8.2999999999999996e-01 3.7526683151067464e-01 5.0385920098192134e+00 1.1715502399490040e+01 2 4 0
473 444 1 4.1499999999999998e-01 1.3934496457252865e+00 4.7980492208812375e+00 9.5566863054539635e+00 -3 0 0
2357 444 1 4.1499999999999998e-01 3.9035971859046426e-01 4.1441247553728910e+00 1.1375013695033147e+01 2 4 0
2894 444 1 4.1499999999999998e-01 9.6606905789265340e-02 4.5545843171240561e+00 1.5316517694650081e+01 2 1 0
1905 444 1 4.1499999999999998e-01 1.7131757232664855e+00 4.8111267785836009e+00 1.9978603000999115e+01 -1 3 0
3089 444 4 0.0000000000000000e+00 1.6560500000000000e+00 9.7467000000000006e+00 1.8169999999999999e+00 0 0 0
3108 444 4 0.0000000000000000e+00 1.6646300000000001e+00 1.1566509999999999e+01 3.5918999999999999e+00 0 0 0
3119 444 4 0.0000000000000000e+00 1.6560500000000000e+00 1.1563549999999999e+01 0.0000000000000000e+00 0 0 0
2206 444 2 -8.2999999999999996e-01 5.3672349585257517e-01 9.0275184085059816e+00 6.3481742694467433e+00 2 -2 0
2207 444 1 4.1499999999999998e-01 1.3611771204877459e+00 9.5137277583854658e+00 6.3377549818255741e+00 2 -2 0
503 444 1 4.1499999999999998e-01 1.2441304422829729e+00 1.2219235989715918e+01 9.5763455278531673e+00 2 1 0
504 444 1 4.1499999999999998e-01 1.2482368406057409e+00 1.1549126943337054e+01 8.2188359697256743e+00 2 1 0
502 444 2 -8.2999999999999996e-01 1.0857735310407053e+00 1.1378703081629558e+01 9.1466254025468121e+00 2 1 0
1315 444 2 -8.2999999999999996e-01 4.1360302560877527e-01 8.5330306610014297e+00 1.1834164774694690e+01 2 -9 0
1316 444 1 4.1499999999999998e-01 1.1344077259344712e-01 8.3592473210066718e+00 1.2726316010291006e+01 2 -9 0
777 444 1 4.1499999999999998e-01 1.9062231268816170e+00 9.1284139074502910e+00 1.1349085215264436e+01 1 0 0
776 444 1 4.1499999999999998e-01 1.9710004022463417e+00 9.8435261687287099e+00 1.0016301080732374e+01 1 0 0
1204 444 2 -8.2999999999999996e-01 2.0238851141912830e+00 8.4459661515432636e+00 1.5697609760217256e+01 -1 -2 0
1206 444 1 4.1499999999999998e-01 1.6633043689017619e+00 9.1353554489607358e+00 1.6255243856072081e+01 -1 -2 0
258 444 1 4.1499999999999998e-01 1.1724675188395484e+00 9.9385920590079078e+00 1.8224588680248186e+01 -3 0 0
256 444 2 -8.2999999999999996e-01 1.1249993440286445e+00 1.0323961729837148e+01 1.7349677871168005e+01 -3 0 0
2450 444 1 4.1499999999999998e-01 8.5949788419958684e-01 8.3054249186410019e+00 1.9886530221235912e+01 5 2 0
2449 444 2 -8.2999999999999996e-01 1.1727959763076867e+00 9.1528088485192196e+00 1.9570276154631962e+01 5 2 0
257 444 1 4.1499999999999998e-01 3.7925662645033897e-01 1.0922602296071847e+01 1.7391260690571183e+01 -3 0 0
3110 444 4 0.0000000000000000e+00 1.6560500000000000e+00 1.3380500000000000e+01 1.8169999999999999e+00 0 0 0
3125 444 4 0.0000000000000000e+00 1.6560500000000000e+00 1.5197450000000000e+01 0.0000000000000000e+00 0 0 0
3126 444 4 0.0000000000000000e+00 1.6548600000000000e+00 1.5200670000000001e+01 3.5781999999999998e+00 0 0 0
1927 444 2 -8.2999999999999996e-01 1.6426021115592078e+00 1.2771243871127574e+01 6.6630038480597582e+00 0 1 0
2295 444 1 4.1499999999999998e-01 1.0186644368488380e+00 1.5223571841694778e+01 7.9532366155310266e+00 0 0 0
1929 444 1 4.1499999999999998e-01 7.2994065752813364e-01 1.2996624577511270e+01 6.4827694028845206e+00 0 1 0
2341 444 2 -8.2999999999999996e-01 1.8166808612560985e+00 1.4724832769200258e+01 1.5530777919652035e+01 -2 0 0
2293 444 2 -8.2999999999999996e-01 1.6210534080640174e-01 1.5125649226059220e+01 8.3691086344335588e+00 0 0 0
525 444 1 4.1499999999999998e-01 1.6959751817406163e+00 1.6096720919033896e+01 1.2243176392514595e+01 2 1 0
2722 444 2 -8.2999999999999996e-01 1.2639115762972819e+00 1.3685299490181041e+01 1.0506162295946645e+01 1 2 0
2723 444 1 4.1499999999999998e-01 4.6785857601437358e-01 1.3838347915934138e+01 1.1015188480767268e+01 1 2 0
2294 444 1 4.1499999999999998e-01 3.3590289397008344e-01 1.4613449247413097e+01 9.1588411488744654e+00 0 0 0
2724 444 1 4.1499999999999998e-01 1.9760752335240199e+00 1.3945752114314459e+01 1.1090302020032444e+01 1 2 0
140 444 1 4.1499999999999998e-01 7.3948166478018929e-01 1.4954103490013837e+01 1.4509250962263751e+01 -1 0 0
1936 444 2 -8.2999999999999996e-01 8.7594991497673724e-01 1.3807178651376791e+01 1.9249222173733596e+01 -1 1 0
1937 444 1 4.1499999999999998e-01 7.6403411390041243e-01 1.4743994884926877e+01 1.9087722807895851e+01 -1 1 0
1938 444 1 4.1499999999999998e-01 2.2612353486489919e-01 1.3387190680449963e+01 1.8685690769418443e+01 -1 1 0
3128 444 4 0.0000000000000000e+00 1.6560500000000000e+00 1.7014299999999999e+01 1.8169999999999999e+00 0 0 0
3145 444 4 0.0000000000000000e+00 1.6560500000000000e+00 1.8831250000000001e+01 0.0000000000000000e+00 0 0 0
3146 444 4 0.0000000000000000e+00 1.6808900000000000e+00 1.8845929999999999e+01 3.5752400000000000e+00 0 0 0
1804 444 2 -8.2999999999999996e-01 6.8961145808246083e-01 1.9667336172400883e+01 6.0629085937657470e+00 0 0 0
1805 444 1 4.1499999999999998e-01 1.3383596957986132e+00 1.9000272529569539e+01 6.2873718494329562e+00 0 0 0
1590 444 1 4.1499999999999998e-01 5.5637723817597462e-01 1.8140744415519240e+01 1.1087785852912397e+01 -2 0 0
1793 444 1 4.1499999999999998e-01 1.6333489642778565e+00 1.9992998489126879e+01 1.0251708083939214e+01 1 1 0
1589 444 1 4.1499999999999998e-01 2.6776197022225126e-02 1.9000320263221013e+01 9.9597132086767619e+00 -2 0 0
1588 444 2 -8.2999999999999996e-01 8.3779208496477320e-01 1.8648431172006788e+01 1.0326673191482621e+01 -2 0 0
2281 444 2 -8.2999999999999996e-01 1.6722344215834403e-01 1.7040199368439772e+01 1.2297480032890524e+01 1 -1 0
2283 444 1 4.1499999999999998e-01 3.6243118217129222e-02 1.7856610439004385e+01 1.2779713431871308e+01 1 -1 0
873 444 1 4.1499999999999998e-01 8.7511833302479702e-01 1.9209483883987595e+01 1.6976945809572939e+01 0 -2 0
871 444 2 -8.2999999999999996e-01 1.6117363321629805e-01 1.9536042944244073e+01 1.6429337904385228e+01 0 -2 0
2190 444 1 4.1499999999999998e-01 6.4358720589310958e-01 1.7051877523924773e+01 1.8868423894827618e+01 0 -5 0
3148 444 4 0.0000000000000000e+00 1.6560500000000000e+00 2.0648199999999999e+01 1.8169999999999999e+00 0 0 0
3167 444 4 0.0000000000000000e+00 1.6646300000000001e+00 2.2468010000000000e+01 3.5918999999999999e+00 0 0 0
3169 444 4 0.0000000000000000e+00 1.6560500000000000e+00 2.4282000000000000e+01 1.8169999999999999e+00 0 0 0
3178 444 4 0.0000000000000000e+00 1.6560500000000000e+00 2.2465050000000002e+01 0.0000000000000000e+00 0 0 0
330 444 1 4.1499999999999998e-01 3.7918797840268065e-01 2.2606489075772213e+01 6.3790778517464535e+00 0 -4 0
1806 444 1 4.1499999999999998e-01 1.0677659360154370e+00 2.0486795241564305e+01 6.3818410855473022e+00 0 0 0
27 444 1 4.1499999999999998e-01 8.9177779972867199e-01 2.1356112005232955e+01 8.8230970101345711e+00 0 -2 0
247 444 2 -8.2999999999999996e-01 1.4340235817544149e+00 2.3301234472659345e+01 1.4524036305192297e+01 4 4 0
249 444 1 4.1499999999999998e-01 1.3785466707765068e+00 2.4194020194355108e+01 1.4864752968319264e+01 4 4 0
248 444 1 4.1499999999999998e-01 9.5215871843062838e-01 2.2771571384792704e+01 1.5159248971827159e+01 4 4 0
2172 444 1 4.1499999999999998e-01 1.6147984575200719e-01 2.3719947043486680e+01 1.3211278969856133e+01 0 -4 0
25 444 2 -8.2999999999999996e-01 5.9221947644454896e-02 2.1386197874486943e+01 8.3517393846047234e+00 0 -2 0
276 444 1 4.1499999999999998e-01 1.3865017902687993e+00 2.2537439754210734e+01 1.7230824297910811e+01 0 -3 0
274 444 2 -8.2999999999999996e-01 6.0857426090178057e-01 2.2143767853895728e+01 1.6835748677465137e+01 0 -3 0
872 444 1 4.1499999999999998e-01 2.7153339928034742e-01 2.0486853471440430e+01 1.6432971785285513e+01 0 -2 0
3184 444 4 0.0000000000000000e+00 1.6560500000000000e+00 2.6098949999999999e+01 0.0000000000000000e+00 0 0 0
3185 444 4 0.0000000000000000e+00 1.6548600000000000e+00 2.6102160000000001e+01 3.5781999999999998e+00 0 0 0
3187 444 4 0.0000000000000000e+00 1.6560500000000000e+00 2.7915800000000001e+01 1.8169999999999999e+00 0 0 0
2500 444 2 -8.2999999999999996e-01 1.7175130921298076e+00 2.7396135753051318e+01 6.4201074461351615e+00 1 0 0
395 444 1 4.1499999999999998e-01 4.4865083404506401e-01 2.6319786344552281e+01 6.9978463059024758e+00 2 0 0
2501 444 1 4.1499999999999998e-01 1.2645407754488367e+00 2.8233015713320061e+01 6.5234525125228604e+00 1 0 0
416 444 1 4.1499999999999998e-01 1.9070899192077608e+00 2.5329583962455864e+01 6.6049315177878585e+00 -1 -5 0
2937 444 1 4.1499999999999998e-01 3.2076571165383239e-01 2.6038289505189926e+01 1.5070269503201429e+01 1 0 0
1821 444 1 4.1499999999999998e-01 4.5196072146837107e-01 2.7111393600420300e+01 9.7216508928771344e+00 0 -4 0
1820 444 1 4.1499999999999998e-01 3.5551317458164028e-01 2.5682995241702532e+01 9.2294403765233000e+00 0 -4 0
2936 444 2 -8.2999999999999996e-01 1.2575212646923601e+00 2.5873666254273285e+01 1.5178066004551205e+01 1 0 0
1484 444 1 4.1499999999999998e-01 1.5524226109775137e+00 2.5704855544940514e+01 1.1509899009417387e+01 -2 -2 0
1819 444 2 -8.2999999999999996e-01 5.0955156100003596e-01 2.6203085657223543e+01 1.0018116471223458e+01 0 -4 0
1485 444 1 4.1499999999999998e-01 1.4304462185014573e+00 2.5360428406501168e+01 1.2979044036661142e+01 -2 -2 0
2940 444 1 4.1499999999999998e-01 1.6566941385870901e+00 2.6743612874069928e+01 1.5168805698099520e+01 1 0 0
2716 444 2 -8.2999999999999996e-01 1.7181375207024101e+00 2.8527523308174889e+01 1.5179758288412703e+01 0 7 0
1502 444 1 4.1499999999999998e-01 4.1836054823505719e-02 2.8282884313447443e+01 1.4187243326808510e+01 -3 3 0
338 444 1 4.1499999999999998e-01 9.2272668227123622e-01 2.6704013163196208e+01 1.8212358315766522e+01 3 -6 0
337 444 2 -8.2999999999999996e-01 2.4455878713103696e-01 2.7193753644693178e+01 1.8677627180318357e+01 3 -6 0
3204 444 4 0.0000000000000000e+00 1.6560500000000000e+00 2.9732749999999999e+01 0.0000000000000000e+00 0 0 0
3205 444 4 0.0000000000000000e+00 1.6808900000000000e+00 2.9747430000000001e+01 3.5752400000000000e+00 0 0 0
3207 444 4 0.0000000000000000e+00 1.6560500000000000e+00 3.1549700000000001e+01 1.8169999999999999e+00 0 0 0
2032 444 2 -8.2999999999999996e-01 7.6065861205198715e-01 3.0503596418093849e+01 6.2066416826777635e+00 2 -1 0
2034 444 1 4.1499999999999998e-01 1.6990091684994562e+00 3.0661307801841943e+01 6.1024434728522730e+00 2 -1 0
2033 444 1 4.1499999999999998e-01 4.1131926063682867e-01 3.1335932822146461e+01 6.5250910599648044e+00 2 -1 0
2811 444 1 4.1499999999999998e-01 4.9963906201759889e-01 3.2370565018078956e+01 1.3230672874659854e+01 -1 -2 0
2118 444 1 4.1499999999999998e-01 1.0798052624361762e+00 2.9149826152034716e+01 9.1278210072275865e+00 1 1 0
2116 444 2 -8.2999999999999996e-01 1.9018396464732268e-01 2.8801416385601250e+01 9.1862714247439676e+00 1 1 0
2463 444 1 4.1499999999999998e-01 1.4635695465662526e+00 3.2156755454568504e+01 8.8252140018230953e+00 2 -2 0
61 444 2 -8.2999999999999996e-01 9.2505982376435703e-01 2.9900446411686026e+01 1.7851317913734057e+01 4 2 0
2717 444 1 4.1499999999999998e-01 1.5643999368844219e+00 2.8847562487070650e+01 1.6068674659818289e+01 0 7 0
62 444 1 4.1499999999999998e-01 6.7105856011060627e-01 2.9073186300115335e+01 1.8260409690592038e+01 4 2 0
63 444 1 4.1499999999999998e-01 2.8650804613622222e-01 3.0535030190880239e+01 1.8176568276742106e+01 4 2 0
3050 444 4 0.0000000000000000e+00 3.4729999999999999e+00 6.6205000000000003e-01 1.8169999999999999e+00 0 0 0
3074 444 4 0.0000000000000000e+00 3.4707200000000000e+00 2.4723899999999999e+00 3.5906400000000001e+00 0 0 0
3075 444 4 0.0000000000000000e+00 3.4729999999999999e+00 2.4790000000000001e+00 0.0000000000000000e+00 0 0 0
589 444 2 -8.2999999999999996e-01 3.5998752143393973e+00 3.2536679670688931e+00 6.1589679531008343e+00 1 -1 0
2910 444 1 4.1499999999999998e-01 2.7452883150760701e+00 1.6576974797560431e+00 6.0706298459954056e+00 5 -3 0
590 444 1 4.1499999999999998e-01 2.7536903497831928e+00 3.4724060882684364e+00 6.5492968822038442e+00 1 -1 0
2908 444 2 -8.2999999999999996e-01 2.1087734304173531e+00 1.1429669498824482e+00 6.5667479134992375e+00 5 -3 0
2909 444 1 4.1499999999999998e-01 2.5696174700343875e+00 9.0109428596451024e-01 7.3700860966127957e+00 5 -3 0
1064 444 1 4.1499999999999998e-01 2.1857783313526871e+00 2.8055664745111533e+00 1.2471561027416607e+01 -3 3 0
2031 444 1 4.1499999999999998e-01 3.9225748693841247e+00 1.9572515708843033e-01 8.7059839321396630e+00 3 4 0
1592 444 1 4.1499999999999998e-01 3.6227621146916973e+00 1.7055556677215059e-01 1.9977832790230675e+01 -6 -2 0
412 444 2 -8.2999999999999996e-01 3.9174622098603504e+00 2.3129135166364141e+00 1.9408281255523796e+01 -1 4 0
12 444 1 4.1499999999999998e-01 2.1755142852783251e+00 3.5205093487685779e-01 1.7032406561604329e+01 2 -1 0
414 444 1 4.1499999999999998e-01 3.8787853085421986e+00 2.9522819805755285e+00 1.8696983306231623e+01 -1 4 0
3064 444 4 0.0000000000000000e+00 3.4729999999999999e+00 6.1128000000000000e+00 0.0000000000000000e+00 0 0 0
3065 444 4 0.0000000000000000e+00 3.4714800000000001e+00 6.1138599999999999e+00 3.5847199999999999e+00 0 0 0
3068 444 4 0.0000000000000000e+00 3.4729999999999999e+00 4.2959500000000004e+00 1.8169999999999999e+00 0 0 0
3088 444 4 0.0000000000000000e+00 3.4729999999999999e+00 7.9297500000000003e+00 1.8169999999999999e+00 0 0 0
2537 444 1 4.1499999999999998e-01 2.4634189572010321e+00 5.9982400334071464e+00 6.6559316467050964e+00 4 1 0
266 444 1 4.1499999999999998e-01 3.3310800322837832e+00 7.1628204315139161e+00 1.1037570523091365e+01 -2 1 0
265 444 2 -8.2999999999999996e-01 3.0760042703045194e+00 6.4413304481401621e+00 1.1612566786338967e+01 -2 1 0
267 444 1 4.1499999999999998e-01 2.2667376251476608e+00 6.1033783236619730e+00 1.1229019936091026e+01 -2 1 0
2037 444 1 4.1499999999999998e-01 3.3025996385141712e+00 4.2152437503450910e+00 9.1607113554221762e+00 -1 -1 0
2184 444 1 4.1499999999999998e-01 3.3357108583790200e+00 7.3147030148371108e+00 1.6348416758084394e+01 -1 5 0
658 444 2 -8.2999999999999996e-01 2.8496910179117529e+00 6.4966385627742760e+00 1.9651512878371573e+01 2 1 0
2105 444 1 4.1499999999999998e-01 3.3698516471531823e+00 5.1939913925476517e+00 1.8310479230287115e+01 -4 1 0
2183 444 1 4.1499999999999998e-01 3.8259876570744806e+00 6.9571106478758367e+00 1.7735374546961456e+01 -1 5 0
2104 444 2 -8.2999999999999996e-01 3.5774629374024158e+00 4.5612942658500328e+00 1.7622856946603783e+01 -4 1 0
659 444 1 4.1499999999999998e-01 2.0952020509384561e+00 7.0793363451748732e+00 1.9737779232165984e+01 2 1 0
2106 444 1 4.1499999999999998e-01 2.7497576811065918e+00 4.4289294715306999e+00 1.7160670943028570e+01 -4 1 0
3084 444 4 0.0000000000000000e+00 3.4729999999999999e+00 9.7467000000000006e+00 0.0000000000000000e+00 0 0 0
3085 444 4 0.0000000000000000e+00 3.4757799999999999e+00 9.7550699999999999e+00 3.5918700000000001e+00 0 0 0
3109 444 4 0.0000000000000000e+00 3.4729999999999999e+00 1.1563549999999999e+01 1.8169999999999999e+00 0 0 0
205 444 2 -8.2999999999999996e-01 2.9331208084121090e+00 1.0494418325860146e+01 6.4231976628496614e+00 4 1 0
207 444 1 4.1499999999999998e-01 3.8286311842692657e+00 1.0692809099524814e+01 6.6969386678393201e+00 4 1 0
1130 444 1 4.1499999999999998e-01 3.7187367894856660e+00 8.7498607134344812e+00 6.8588318680868623e+00 -2 1 0
206 444 1 4.1499999999999998e-01 2.4555315510864739e+00 1.1313812834621316e+01 6.5525539273392832e+00 4 1 0
700 444 2 -8.2999999999999996e-01 2.7911381934601733e+00 9.7914484114149509e+00 1.3581594425790341e+01 2 -1 0
1205 444 1 4.1499999999999998e-01 2.2113879688011884e+00 8.8828360499752677e+00 1.4866815422599021e+01 -1 -2 0
701 444 1 4.1499999999999998e-01 2.9823582052135480e+00 9.1975347685059692e+00 1.2855692522606844e+01 2 -1 0
775 444 2 -8.2999999999999996e-01 2.4932277812460617e+00 9.3096642685701898e+00 1.0615051355682642e+01 1 0 0
702 444 1 4.1499999999999998e-01 3.3079806338820759e+00 1.0574802451612932e+01 1.3393278833742738e+01 2 -1 0
1957 444 2 -8.2999999999999996e-01 3.9523944868273744e+00 1.1568862609625189e+01 1.4918361518606398e+01 -2 0 0
1959 444 1 4.1499999999999998e-01 3.7712994069187289e+00 1.2074067192020994e+01 1.5710955767297756e+01 -2 0 0
1958 444 1 4.1499999999999998e-01 3.3070993750657536e+00 1.0862003370670564e+01 1.4931651579342613e+01 -2 0 0
491 444 1 4.1499999999999998e-01 3.4554148439480055e+00 9.8853178677163882e+00 1.8063919464643508e+01 3 0 0
2546 444 1 4.1499999999999998e-01 2.1258099991464481e+00 1.1866565586677018e+01 1.7176881510071286e+01 0 1 0
3127 444 4 0.0000000000000000e+00 3.4729999999999999e+00 1.5197450000000000e+01 1.8169999999999999e+00 0 0 0
3133 444 4 0.0000000000000000e+00 3.4707200000000000e+00 1.3373889999999999e+01 3.5906400000000001e+00 0 0 0
3134 444 4 0.0000000000000000e+00 3.4729999999999999e+00 1.3380500000000000e+01 0.0000000000000000e+00 0 0 0
200 444 1 4.1499999999999998e-01 3.2341611505894448e+00 1.5501293741105517e+01 6.8760459716606475e+00 -1 -2 0
199 444 2 -8.2999999999999996e-01 2.3008096288605997e+00 1.5405263709919565e+01 6.6866653071773223e+00 -1 -2 0
201 444 1 4.1499999999999998e-01 2.0849455456610366e+00 1.6168341414627207e+01 6.1506177739201622e+00 -1 -2 0
1928 444 1 4.1499999999999998e-01 2.0865346273582355e+00 1.3615295550105374e+01 6.7450559309152061e+00 0 1 0
523 444 2 -8.2999999999999996e-01 2.3626025642905661e+00 1.5442655441441532e+01 1.2033323708743113e+01 2 1 0
2931 444 1 4.1499999999999998e-01 3.3094931627631579e+00 1.3704326505847634e+01 1.2731753154058712e+01 2 0 0
2929 444 2 -8.2999999999999996e-01 3.9887952240622617e+00 1.3046371992614475e+01 1.2583845707577094e+01 2 0 0
2343 444 1 4.1499999999999998e-01 2.4454727707412114e+00 1.5445498955398079e+01 1.5569418745248454e+01 -2 0 0
524 444 1 4.1499999999999998e-01 2.9466846206507955e+00 1.5884488843459589e+01 1.1416993214637728e+01 2 1 0
1161 444 1 4.1499999999999998e-01 3.8836546446771809e+00 1.5787585063678181e+01 1.3794537371501832e+01 1 0 0
2545 444 2 -8.2999999999999996e-01 2.6226310365646945e+00 1.2675943542757446e+01 1.7057265327422293e+01 0 1 0
2342 444 1 4.1499999999999998e-01 2.1007134119449584e+00 1.4121439332009615e+01 1.6217418064270255e+01 -2 0 0
95 444 1 4.1499999999999998e-01 2.4170487102601830e+00 1.3133056869244109e+01 1.9412116886066823e+01 0 1 0
94 444 2 -8.2999999999999996e-01 3.3160025026151665e+00 1.2817813679239732e+01 1.9505581789059100e+01 0 1 0
2547 444 1 4.1499999999999998e-01 2.9478472270829577e+00 1.2889387259479205e+01 1.7931855558382207e+01 0 1 0
3123 444 4 0.0000000000000000e+00 3.4729999999999999e+00 1.7014299999999999e+01 0.0000000000000000e+00 0 0 0
3124 444 4 0.0000000000000000e+00 3.4714800000000001e+00 1.7015360000000001e+01 3.5847199999999999e+00 0 0 0
3147 444 4 0.0000000000000000e+00 3.4729999999999999e+00 1.8831250000000001e+01 1.8169999999999999e+00 0 0 0
2815 444 2 -8.2999999999999996e-01 2.6647800462153972e+00 1.8157766734934391e+01 6.9836897356511205e+00 0 0 0
2817 444 1 4.1499999999999998e-01 3.5752348490164763e+00 1.8274195090108968e+01 6.7121231967929296e+00 0 0 0
2816 444 1 4.1499999999999998e-01 2.7040470123576825e+00 1.8105060045470488e+01 7.9386305512520607e+00 0 0 0
349 444 2 -8.2999999999999996e-01 3.3451767852053100e+00 1.9056916838287588e+01 1.3473863389498973e+01 -2 0 0
351 444 1 4.1499999999999998e-01 3.1403560870148204e+00 1.9888397731210070e+01 1.3046172068635473e+01 -2 0 0
350 444 1 4.1499999999999998e-01 3.5971127997739156e+00 1.9300832403315813e+01 1.4364517807007751e+01 -2 0 0
1160 444 1 4.1499999999999998e-01 3.7235237337415348e+00 1.7292897768914333e+01 1.3811483169799834e+01 1 0 0
1159 444 2 -8.2999999999999996e-01 3.8326668651250761e+00 1.6536747172008376e+01 1.4388160684111844e+01 1 0 0
2296 444 2 -8.2999999999999996e-01 2.1517562233124479e+00 1.7866440704845662e+01 1.8401385079201852e+01 3 2 0
2297 444 1 4.1499999999999998e-01 2.8803128383590759e+00 1.7447669753386176e+01 1.7943053302874826e+01 3 2 0
2298 444 1 4.1499999999999998e-01 2.5697851074686819e+00 1.8424761248104737e+01 1.9056947341885728e+01 3 2 0
3143 444 4 0.0000000000000000e+00 3.4729999999999999e+00 2.0648199999999999e+01 0.0000000000000000e+00 0 0 0
3144 444 4 0.0000000000000000e+00 3.4757799999999999e+00 2.0656569999999999e+01 3.5918700000000001e+00 0 0 0
3168 444 4 0.0000000000000000e+00 3.4729999999999999e+00 2.2465050000000002e+01 1.8169999999999999e+00 0 0 0
3192 444 4 0.0000000000000000e+00 3.4707200000000000e+00 2.4275390000000002e+01 3.5906400000000001e+00 0 0 0
3193 444 4 0.0000000000000000e+00 3.4729999999999999e+00 2.4282000000000000e+01 0.0000000000000000e+00 0 0 0
1421 444 1 4.1499999999999998e-01 3.2021882040232201e+00 2.1774120260249710e+01 6.2735505759361674e+00 -2 0 0
1422 444 1 4.1499999999999998e-01 2.3443437639288378e+00 2.3016115672011434e+01 6.3895053635284569e+00 -2 0 0
1420 444 2 -8.2999999999999996e-01 2.2910679149035329e+00 2.2062351303433680e+01 6.3284554733923635e+00 -2 0 0
1914 444 1 4.1499999999999998e-01 3.5251112748967053e+00 2.1193070403880256e+01 9.6347767824197472e+00 0 -2 0
2721 444 1 4.1499999999999998e-01 2.1945723079007493e+00 2.2072560212727868e+01 1.3325132797947560e+01 5 1 0
2720 444 1 4.1499999999999998e-01 3.4443856370179722e+00 2.2158313979745468e+01 1.2475128021068315e+01 5 1 0
2719 444 2 -8.2999999999999996e-01 2.7402974364343140e+00 2.1561105171744551e+01 1.2727780562421385e+01 5 1 0
1794 444 1 4.1499999999999998e-01 2.2944207429058285e+00 2.0953047269212618e+01 1.1217723430662506e+01 1 1 0
1073 444 1 4.1499999999999998e-01 3.3547967133637617e+00 2.4189118754856537e+01 1.1934189848627259e+01 -1 0 0
1792 444 2 -8.2999999999999996e-01 2.0718498525548235e+00 2.0842832860715237e+01 1.0293306396597014e+01 1 1 0
366 444 1 4.1499999999999998e-01 3.8991744521847322e+00 2.2714517019352083e+01 1.5355889800002320e+01 0 -3 0
741 444 1 4.1499999999999998e-01 3.7818343970450807e+00 2.2640436685266835e+01 1.7951829028255883e+01 -1 3 0
739 444 2 -8.2999999999999996e-01 2.8924453160439789e+00 2.2992487896547321e+01 1.7987603847302569e+01 -1 3 0
740 444 1 4.1499999999999998e-01 2.6227643855229150e+00 2.2871185461695578e+01 1.8897982913548606e+01 -1 3 0
3182 444 4 0.0000000000000000e+00 3.4729999999999999e+00 2.7915800000000001e+01 0.0000000000000000e+00 0 0 0
3183 444 4 0.0000000000000000e+00 3.4714800000000001e+00 2.7916860000000000e+01 3.5847199999999999e+00 0 0 0
3186 444 4 0.0000000000000000e+00 3.4729999999999999e+00 2.6098949999999999e+01 1.8169999999999999e+00 0 0 0
2502 444 1 4.1499999999999998e-01 2.6464755712293928e+00 2.7615668939922720e+01 6.4912869165666232e+00 1 0 0
417 444 1 4.1499999999999998e-01 3.3857157033062162e+00 2.5032077191467870e+01 6.7355103137516972e+00 -1 -5 0
415 444 2 -8.2999999999999996e-01 2.5573240702225957e+00 2.4643431941273732e+01 6.4545223761583790e+00 -1 -5 0
1483 444 2 -8.2999999999999996e-01 2.0751328364072190e+00 2.5504219282567998e+01 1.2286270076750018e+01 -2 -2 0
2534 444 1 4.1499999999999998e-01 3.7286329479879003e+00 2.6614508668861550e+01 1.1847746090593171e+01 5 -3 0
1677 444 1 4.1499999999999998e-01 3.0825409605577327e+00 2.6753750628182331e+01 1.9597901921917508e+01 0 -3 0
757 444 2 -8.2999999999999996e-01 3.1437812983664948e+00 2.5892646239201600e+01 1.7824094114746600e+01 2 -7 0
759 444 1 4.1499999999999998e-01 3.9201317051498945e+00 2.6214301747607525e+01 1.7365780927494455e+01 2 -7 0
758 444 1 4.1499999999999998e-01 2.8203673998606571e+00 2.5177810340052673e+01 1.7275782842979734e+01 2 -7 0
3202 444 4 0.0000000000000000e+00 3.4729999999999999e+00 3.1549700000000001e+01 0.0000000000000000e+00 0 0 0
3203 444 4 0.0000000000000000e+00 3.4757799999999999e+00 3.1558070000000001e+01 3.5918700000000001e+00 0 0 0
3206 444 4 0.0000000000000000e+00 3.4729999999999999e+00 2.9732749999999999e+01 1.8169999999999999e+00 0 0 0
1407 444 1 4.1499999999999998e-01 2.7549092868341609e+00 3.0108712647149030e+01 7.8931379161359656e+00 -1 -1 0
2830 444 2 -8.2999999999999996e-01 3.2021008946694360e+00 3.0947107105614485e+01 6.3912096343291696e+00 0 2 0
2831 444 1 4.1499999999999998e-01 3.4181760352294495e+00 3.1877389107361683e+01 6.4553895694773313e+00 0 2 0
2832 444 1 4.1499999999999998e-01 3.9704334529051115e+00 3.0550012030755667e+01 5.9810720224416762e+00 0 2 0
1405 444 2 -8.2999999999999996e-01 2.6010351481982483e+00 2.9631993420753712e+01 8.7087939619782517e+00 -1 -1 0
2706 444 1 4.1499999999999998e-01 3.2370282574308087e+00 3.0731570611245168e+01 1.3087256216116520e+01 5 -2 0
2704 444 2 -8.2999999999999996e-01 3.1822053800660561e+00 3.0511124598185816e+01 1.4017110981764024e+01 5 -2 0
1406 444 1 4.1499999999999998e-01 3.3235879575189871e+00 2.9006360832510367e+01 8.7610783270002255e+00 -1 -1 0
2935 444 2 -8.2999999999999996e-01 3.2327349084200980e+00 3.0886156869351343e+01 1.1450061710691307e+01 2 0 0
2938 444 1 4.1499999999999998e-01 3.3402164247389896e+00 3.1685300505040892e+01 1.0934261820137152e+01 2 0 0
2939 444 1 4.1499999999999998e-01 2.8460838752929205e+00 3.0257376412536015e+01 1.0840661617684644e+01 2 0 0
2461 444 2 -8.2999999999999996e-01 2.1634925046552365e+00 3.2636358303555895e+01 9.2682950488076017e+00 2 -2 0
2157 444 1 4.1499999999999998e-01 2.3215717122217709e+00 3.2018503140718458e+01 1.4322482578839063e+01 4 4 0
2705 444 1 4.1499999999999998e-01 3.9437671926025977e+00 2.9953700654717085e+01 1.4176904606319477e+01 5 -2 0
2718 444 1 4.1499999999999998e-01 2.0794301761224285e+00 2.9280829817832625e+01 1.4712607285886332e+01 0 7 0
2605 444 2 -8.2999999999999996e-01 2.8828767872770347e+00 3.1688307379086538e+01 1.7169975317673519e+01 0 0 0
2606 444 1 4.1499999999999998e-01 2.0797155199413027e+00 3.1210628422462261e+01 1.7377307557911482e+01 0 0 0
2607 444 1 4.1499999999999998e-01 3.5283099013874759e+00 3.1005171460862073e+01 1.6988389896145268e+01 0 0 0
1591 444 2 -8.2999999999999996e-01 3.7201035207617918e+00 3.1936190901673861e+01 1.9818803144944660e+01 -6 -3 0