LAMMPS data file via write_data, version 11 Aug 2017, timestep = 1000000

3549 atoms
11 atom types
2024 bonds
5 bond types
1018 angles
5 angle types
12 dihedrals
4 dihedral types
9 impropers
1 improper types

0.0000000000000000e+00 3.2704500000000003e+01 xlo xhi
0.0000000000000000e+00 3.2704500000000003e+01 ylo yhi
0.0000000000000000e+00 8.0000000000000000e+01 zlo zhi

Masses

1 1.0079
2 15.9994
3 39.0983
4 63.546
5 12.011
6 1.0079
7 12.011
8 15.9994
9 15.9994
10 15.9994
11 1.0079

Bond Coeffs # harmonic

1 450 0.9572
2 570 1.229
3 450 1.364
4 570 1.229
5 553 0.945

Angle Coeffs # harmonic

1 100 123.32
2 85 124
3 55 104.52
4 35 113
5 100 123.32

Dihedral Coeffs # charmm

1 0.922 1 180 0
2 3.741 2 0 0
3 0.922 1 0 0
4 3.741 2 180 0

Improper Coeffs # umbrella

1 21 0

Atoms # full

3049 444 4 0.0000000000000000e+00 1.6719999999999999e+00 6.7476999999999998e-01 3.5870799999999998e+00 0 0 0
3051 444 4 0.0000000000000000e+00 1.6560500000000000e+00 2.4790000000000001e+00 1.8169999999999999e+00 0 0 0
3060 444 4 0.0000000000000000e+00 1.6560500000000000e+00 6.6205000000000003e-01 0.0000000000000000e+00 0 0 0
1381 444 2 -8.2999999999999996e-01 1.4192008721406941e+00 1.6445042217655448e+00 6.9134983989303258e+00 0 1 0
1382 444 1 4.1499999999999998e-01 6.7833527481808042e-01 2.1505666450184791e+00 6.5799531432488623e+00 0 1 0
1383 444 1 4.1499999999999998e-01 1.1875777030699488e+00 7.3324195449678320e-01 6.7340960946238493e+00 0 1 0
2831 444 1 4.1499999999999998e-01 1.2516865879247976e+00 3.4265534817307858e-01 1.4486589101431916e+01 2 -6 0
2391 444 1 4.1499999999999998e-01 1.7980167810437706e-01 2.3439670430537971e+00 1.3658859084669153e+01 1 0 0
557 444 1 4.1499999999999998e-01 1.7839918367760530e+00 1.9277613635211586e+00 1.0386577374030493e+01 4 5 0
2389 444 2 -8.2999999999999996e-01 2.9672866143746084e-02 3.2881085272594404e+00 1.3706713632863250e+01 1 0 0
2355 444 1 4.1499999999999998e-01 1.7224344263100979e+00 2.7083657890491790e+00 8.3292123975095009e+00 5 3 0
2353 444 2 -8.2999999999999996e-01 1.8160065084454173e+00 3.0799486562314176e+00 9.2063681947221365e+00 5 3 0
2832 444 1 4.1499999999999998e-01 1.8991210161481979e+00 1.6779130017825317e-01 1.5843846114727357e+01 2 -6 0
2354 444 1 4.1499999999999998e-01 1.5646748972650777e+00 3.9981062799850533e+00 9.1061143083753162e+00 5 3 0
1211 444 1 4.1499999999999998e-01 1.3214493850532563e+00 5.9725113883790937e-01 1.8678833725100613e+01 -3 3 0
1210 444 2 -8.2999999999999996e-01 6.1904944313998878e-01 3.5865526282795046e-01 1.9283761976936251e+01 -3 3 0
1493 444 1 4.1499999999999998e-01 1.5850120254429463e+00 3.7117862384651024e+00 1.6344317222021434e+01 -1 -1 0
3066 444 4 0.0000000000000000e+00 1.6560500000000000e+00 4.2959500000000004e+00 0.0000000000000000e+00 0 0 0
3067 444 4 0.0000000000000000e+00 1.6597299999999999e+00 4.2923299999999998e+00 3.5614499999999998e+00 0 0 0
3069 444 4 0.0000000000000000e+00 1.6560500000000000e+00 6.1128000000000000e+00 1.8169999999999999e+00 0 0 0
3086 444 4 0.0000000000000000e+00 1.6560500000000000e+00 7.9297500000000003e+00 0.0000000000000000e+00 0 0 0
3087 444 4 0.0000000000000000e+00 1.6916500000000001e+00 7.9585800000000004e+00 3.5748199999999999e+00 0 0 0
2803 444 2 -8.2999999999999996e-01 1.0460979924513134e+00 4.6817172551407928e+00 6.9535343750584007e+00 -2 0 0
2805 444 1 4.1499999999999998e-01 1.9194883800798290e+00 4.4765756311939269e+00 6.6198608273054518e+00 -2 0 0
2804 444 1 4.1499999999999998e-01 4.5063754137791218e-01 4.1995562618461433e+00 6.3797927275416120e+00 -2 0 0
1811 444 1 4.1499999999999998e-01 1.6724536794676528e+00 5.4265816355291028e+00 1.0892508553188618e+01 0 2 0
1810 444 2 -8.2999999999999996e-01 1.7521405228353648e+00 5.7119207443827529e+00 9.9823083698046968e+00 0 2 0
403 444 2 -8.2999999999999996e-01 9.0873272066774735e-01 6.8166408508975040e+00 1.5816246188179839e+01 4 4 0
439 444 2 -8.2999999999999996e-01 1.5286919242097821e+00 5.0129191797061665e+00 1.2485696754749531e+01 -1 1 0
405 444 1 4.1499999999999998e-01 5.8407293576586239e-01 5.9306483239508347e+00 1.5977012281361432e+01 4 4 0
1494 444 1 4.1499999999999998e-01 3.8681634872565968e-01 4.2744966297341245e+00 1.5609756325960987e+01 -1 -1 0
2150 444 1 4.1499999999999998e-01 2.5372078134031945e-01 6.0888479611473976e+00 1.2706362529395221e+01 1 -2 0
440 444 1 4.1499999999999998e-01 9.2902956507853185e-01 4.3382116044179613e+00 1.2804140874117653e+01 -1 1 0
404 444 1 4.1499999999999998e-01 5.3518973954036742e-01 7.3412868878913065e+00 1.6524373733044747e+01 4 4 0
1089 444 1 4.1499999999999998e-01 1.5003217680757921e+00 4.4423704215809003e+00 1.9240930779332810e+01 1 -4 0
1492 444 2 -8.2999999999999996e-01 7.7542565184658785e-01 4.2036631487204152e+00 1.6481649471310604e+01 -1 -1 0
3089 444 4 0.0000000000000000e+00 1.6560500000000000e+00 9.7467000000000006e+00 1.8169999999999999e+00 0 0 0
3106 444 4 0.0000000000000000e+00 1.6719999999999999e+00 1.1576269999999999e+01 3.5870799999999998e+00 0 0 0
3117 444 4 0.0000000000000000e+00 1.6560500000000000e+00 1.1563549999999999e+01 0.0000000000000000e+00 0 0 0
274 444 2 -8.2999999999999996e-01 1.1876154951045581e+00 9.0935494356801883e+00 6.9235915943703272e+00 0 0 0
275 444 1 4.1499999999999998e-01 3.1828476206642947e-01 8.6929323506859895e+00 6.9254117472675096e+00 0 0 0
276 444 1 4.1499999999999998e-01 1.0315993811572794e+00 1.0004370759684011e+01 6.6740000933695924e+00 0 0 0
1834 444 2 -8.2999999999999996e-01 1.0565883958408775e+00 1.1783223042599804e+01 6.8299679592478153e+00 -4 1 0
1836 444 1 4.1499999999999998e-01 6.3412796761918977e-01 1.1594504881203338e+01 7.6679088751260478e+00 -4 1 0
2844 444 1 4.1499999999999998e-01 1.8373179975796827e+00 9.2640248332190236e+00 9.8738342669882204e+00 0 2 0
2848 444 2 -8.2999999999999996e-01 1.9771535202917885e+00 1.0860767202026436e+01 1.0470567836531327e+01 2 3 0
2849 444 1 4.1499999999999998e-01 1.3660232367125262e+00 1.1576316405726024e+01 1.0295236733489055e+01 2 3 0
2842 444 2 -8.2999999999999996e-01 2.0323965691799790e+00 8.3940228743959047e+00 9.5255901974756956e+00 0 2 0
2843 444 1 4.1499999999999998e-01 1.8874418872358729e+00 8.4748257825742197e+00 8.5828857014374762e+00 0 2 0
1343 444 1 4.1499999999999998e-01 1.9071868448402163e+00 1.1645619193722927e+01 1.3668856328911103e+01 6 0 0
2033 444 1 4.1499999999999998e-01 1.8854095886986317e+00 1.0840166784292471e+01 1.9114603742455660e+01 3 -2 0
166 444 2 -8.2999999999999996e-01 1.2013411340178657e+00 1.2130402626043747e+01 1.9811101150321353e+01 -3 3 0
545 444 1 4.1499999999999998e-01 1.0997743799344482e-01 9.2042373830926412e+00 1.8212793266285839e+01 1 2 0
83 444 1 4.1499999999999998e-01 1.5174242512438940e+00 1.1082247725966944e+01 1.6038639651856816e+01 -1 2 0
82 444 2 -8.2999999999999996e-01 1.9451349697629885e+00 1.0284583951634078e+01 1.6350134255332502e+01 -1 2 0
3108 444 4 0.0000000000000000e+00 1.6560500000000000e+00 1.3380500000000000e+01 1.8169999999999999e+00 0 0 0
3123 444 4 0.0000000000000000e+00 1.6560500000000000e+00 1.5197450000000000e+01 0.0000000000000000e+00 0 0 0
3124 444 4 0.0000000000000000e+00 1.6597299999999999e+00 1.5193830000000000e+01 3.5614499999999998e+00 0 0 0
559 444 2 -8.2999999999999996e-01 9.9592234971247762e-01 1.5138965616561611e+01 6.9121013491239331e+00 1 6 0
560 444 1 4.1499999999999998e-01 1.3394443156465838e+00 1.4626403519835575e+01 7.6438831617058947e+00 1 6 0
561 444 1 4.1499999999999998e-01 3.0922247614147530e-01 1.4588840262728743e+01 6.5352230878586264e+00 1 6 0
1835 444 1 4.1499999999999998e-01 4.4058546320363690e-01 1.2357091278215414e+01 6.3745030652573700e+00 -4 1 0
1216 444 2 -8.2999999999999996e-01 9.9031352545765949e-01 1.2545161775638695e+01 1.5062939560375044e+01 -2 -4 0
1217 444 1 4.1499999999999998e-01 1.5333091761603399e+00 1.3310788604031689e+01 1.5250564545728595e+01 -2 -4 0
1218 444 1 4.1499999999999998e-01 9.1073364850105573e-02 1.2864304718298968e+01 1.5138746906439415e+01 -2 -4 0
2526 444 1 4.1499999999999998e-01 7.0618672700759588e-01 1.3443876917066030e+01 9.3343279077869568e+00 -1 -6 0
2524 444 2 -8.2999999999999996e-01 1.9014341504583540e-01 1.2946125614780671e+01 9.9685006664674649e+00 -1 -6 0
168 444 1 4.1499999999999998e-01 1.6352256489671007e+00 1.2920150975680903e+01 1.9488186243014219e+01 -3 3 0
1979 444 1 4.1499999999999998e-01 1.8320997033402435e+00 1.5663553498910135e+01 1.6130541626357882e+01 0 3 0
1436 444 1 4.1499999999999998e-01 6.8307810359363930e-01 1.5258275771798642e+01 1.8299785752678829e+01 3 0 0
3126 444 4 0.0000000000000000e+00 1.6560500000000000e+00 1.7014299999999999e+01 1.8169999999999999e+00 0 0 0
3143 444 4 0.0000000000000000e+00 1.6560500000000000e+00 1.8831250000000001e+01 0.0000000000000000e+00 0 0 0
3144 444 4 0.0000000000000000e+00 1.6916500000000001e+00 1.8860080000000000e+01 3.5748199999999999e+00 0 0 0
958 444 2 -8.2999999999999996e-01 1.7198730278284360e+00 1.9090909967199718e+01 6.9211785491702722e+00 2 -1 0
960 444 1 4.1499999999999998e-01 1.9547014451970510e+00 1.8230482297425290e+01 6.5736844631440983e+00 2 -1 0
2597 444 1 4.1499999999999998e-01 4.6641547402131778e-02 1.6405731403360850e+01 7.9638109710355840e+00 -1 2 0
2554 444 2 -8.2999999999999996e-01 1.3046203860542904e+00 2.0132337053172986e+01 1.4528911642169572e+01 2 -2 0
1270 444 2 -8.2999999999999996e-01 5.4304921308398847e-02 1.8625467778307016e+01 1.0773321415313196e+01 1 -3 0
1469 444 1 4.1499999999999998e-01 1.7398531187917317e+00 1.6723722833934254e+01 1.2779487204027411e+01 3 0 0
1136 444 1 4.1499999999999998e-01 1.8336618856309652e+00 1.8100735290991221e+01 9.1714136353946483e+00 4 -3 0
1468 444 2 -8.2999999999999996e-01 8.6027965144065954e-01 1.7018303333927122e+01 1.3015718107253099e+01 3 0 0
729 444 1 4.1499999999999998e-01 9.0582385643104613e-01 1.7497537915826094e+01 1.5323923433344088e+01 2 6 0
1470 444 1 4.1499999999999998e-01 6.6932036062249800e-01 1.7723693922468712e+01 1.2397501938188492e+01 3 0 0
2556 444 1 4.1499999999999998e-01 1.9240235737590792e+00 2.0023174535180374e+01 1.3807347327850907e+01 2 -2 0
727 444 2 -8.2999999999999996e-01 8.4679748842831104e-01 1.7342158010938331e+01 1.6266582137754074e+01 2 6 0
728 444 1 4.1499999999999998e-01 6.9117792130107825e-02 1.7827753761849433e+01 1.6541616213894464e+01 2 6 0
2945 444 1 4.1499999999999998e-01 3.7629229512021439e-01 1.8003789913959167e+01 1.9296670597234151e+01 0 1 0
3146 444 4 0.0000000000000000e+00 1.6560500000000000e+00 2.0648199999999999e+01 1.8169999999999999e+00 0 0 0
3163 444 4 0.0000000000000000e+00 1.6719999999999999e+00 2.2477770000000000e+01 3.5870799999999998e+00 0 0 0
3165 444 4 0.0000000000000000e+00 1.6560500000000000e+00 2.4282000000000000e+01 1.8169999999999999e+00 0 0 0
3174 444 4 0.0000000000000000e+00 1.6560500000000000e+00 2.2465050000000002e+01 0.0000000000000000e+00 0 0 0
2414 444 1 4.1499999999999998e-01 9.6513728614242900e-01 2.1455213861292656e+01 7.4433896736603113e+00 1 0 0
2413 444 2 -8.2999999999999996e-01 6.6401120660502036e-02 2.1774749054843110e+01 7.3633713245028103e+00 1 0 0
608 444 1 4.1499999999999998e-01 1.7079623999110611e+00 2.3659274512923407e+01 6.7695618061442513e+00 -4 1 0
2675 444 1 4.1499999999999998e-01 5.0631262289187962e-01 2.0654141404782884e+01 1.1317116230258449e+01 -1 -4 0
1621 444 2 -8.2999999999999996e-01 1.8103769563688858e+00 2.2937790627085885e+01 1.5085134959565019e+01 5 2 0
1623 444 1 4.1499999999999998e-01 8.6985103251235540e-01 2.3070951236822296e+01 1.5203081605593612e+01 5 2 0
2057 444 1 4.1499999999999998e-01 2.1239897707611555e-01 2.2969790179504994e+01 1.2629521493938649e+01 0 4 0
2555 444 1 4.1499999999999998e-01 1.5088178420756126e+00 2.0994058694904037e+01 1.4892189859880551e+01 2 -2 0
2676 444 1 4.1499999999999998e-01 1.6252951257405523e+00 2.1020327447265501e+01 1.2268789090368912e+01 -1 -4 0
2674 444 2 -8.2999999999999996e-01 1.0236002086247675e+00 2.1397530639329915e+01 1.1626984542359420e+01 -1 -4 0
2215 444 2 -8.2999999999999996e-01 9.6101391940506686e-01 2.4317981304810875e+01 1.9016301044726539e+01 2 -5 0
660 444 1 4.1499999999999998e-01 7.1089514041892887e-01 2.1527857844817859e+01 1.8980499649579972e+01 -2 -2 0
2217 444 1 4.1499999999999998e-01 1.3308576593512391e+00 2.3439275536274273e+01 1.8930719301993243e+01 2 -5 0
658 444 2 -8.2999999999999996e-01 1.6404326884481626e+00 2.1642535708686427e+01 1.9178088556725040e+01 -2 -2 0
2216 444 1 4.1499999999999998e-01 3.9808766220657837e-01 2.4417251085312518e+01 1.8248517214906574e+01 2 -5 0
3180 444 4 0.0000000000000000e+00 1.6560500000000000e+00 2.6098949999999999e+01 0.0000000000000000e+00 0 0 0
3181 444 4 0.0000000000000000e+00 1.6597299999999999e+00 2.6095330000000001e+01 3.5614499999999998e+00 0 0 0
3183 444 4 0.0000000000000000e+00 1.6560500000000000e+00 2.7915800000000001e+01 1.8169999999999999e+00 0 0 0
1030 444 2 -8.2999999999999996e-01 9.2809949666828306e-01 2.5845164087188891e+01 7.1826374617609270e+00 -1 2 0
1031 444 1 4.1499999999999998e-01 4.0053458225631838e-01 2.6374302332915857e+01 7.7809014741814675e+00 -1 2 0
1032 444 1 4.1499999999999998e-01 1.7080133024743944e+00 2.6375050621214907e+01 7.0177540330375665e+00 -1 2 0
667 444 2 -8.2999999999999996e-01 1.4265015328040392e-01 2.8088973108130762e+01 1.4524066373809889e+01 5 -1 0
2209 444 2 -8.2999999999999996e-01 1.7727003213841941e-01 2.8197924059082730e+01 8.2674252345551711e+00 2 0 0
532 444 2 -8.2999999999999996e-01 6.3971339528945481e-01 2.4624014380121583e+01 1.0176134726483701e+01 0 -1 0
533 444 1 4.1499999999999998e-01 2.6503803671928439e-01 2.5473370673323629e+01 1.0409468791592900e+01 0 -1 0
1901 444 1 4.1499999999999998e-01 1.5916521343427423e+00 2.6843829415324780e+01 1.5096570187566144e+01 3 3 0
383 444 1 4.1499999999999998e-01 5.7999654652311017e-01 2.7612192471850459e+01 1.1126383452123799e+01 4 1 0
1900 444 2 -8.2999999999999996e-01 1.8241044698279039e+00 2.5918946828069597e+01 1.5014164267053772e+01 3 3 0
2210 444 1 4.1499999999999998e-01 1.5212886815024504e-01 2.7975034333203279e+01 9.1979734377712496e+00 2 0 0
1659 444 1 4.1499999999999998e-01 2.5863028459647974e-01 2.5471040018143274e+01 1.6170584233514646e+01 0 -1 0
3200 444 4 0.0000000000000000e+00 1.6560500000000000e+00 2.9732749999999999e+01 0.0000000000000000e+00 0 0 0
3201 444 4 0.0000000000000000e+00 1.6916500000000001e+00 2.9761579999999999e+01 3.5748199999999999e+00 0 0 0
3203 444 4 0.0000000000000000e+00 1.6560500000000000e+00 3.1549700000000001e+01 1.8169999999999999e+00 0 0 0
1505 444 1 4.1499999999999998e-01 1.1482475260797536e+00 3.1148476213105482e+01 6.9005431554827341e+00 0 -3 0
1504 444 2 -8.2999999999999996e-01 5.2399317286638791e-01 3.1871652660421958e+01 6.9601602593558098e+00 0 -3 0
2321 444 1 4.1499999999999998e-01 1.2672971481535820e+00 2.9052056945080018e+01 7.4181520025049634e+00 1 4 0
2320 444 2 -8.2999999999999996e-01 2.0079121042666088e+00 2.9520567405110899e+01 7.0331593520068045e+00 1 4 0
535 444 2 -8.2999999999999996e-01 1.3886432652363117e+00 3.0187862173645243e+01 1.3352123005381623e+01 0 -4 0
283 444 2 -8.2999999999999996e-01 1.8103231223516163e+00 3.1207863556656118e+01 1.1023167768116604e+01 -4 1 0
285 444 1 4.1499999999999998e-01 1.8509758381499763e+00 3.2151647806021494e+01 1.1177603800743565e+01 -4 1 0
668 444 1 4.1499999999999998e-01 6.9515834797019871e-01 2.8830234058869085e+01 1.4276076957270480e+01 5 -1 0
284 444 1 4.1499999999999998e-01 8.8646220567320189e-01 3.1033705574515881e+01 1.0843218149113993e+01 -4 1 0
537 444 1 4.1499999999999998e-01 1.7207047855414470e+00 3.0660361682436019e+01 1.4115478242925922e+01 0 -4 0
804 444 1 4.1499999999999998e-01 1.8775554823612286e+00 2.8868732146952134e+01 1.2403284876259148e+01 -1 -1 0
2830 444 2 -8.2999999999999996e-01 1.7022230461275165e+00 3.2403216365930014e+01 1.5033024343292995e+01 2 -7 0
536 444 1 4.1499999999999998e-01 1.6393138460569392e+00 3.0731815828584278e+01 1.2605456717194995e+01 0 -4 0
1957 444 2 -8.2999999999999996e-01 3.1723054881764218e-01 3.0422467201294396e+01 1.7774171023366726e+01 -1 -2 0
1056 444 1 4.1499999999999998e-01 1.7371338471651565e+00 2.9802895812968185e+01 1.6746833680113681e+01 -1 0 0
1958 444 1 4.1499999999999998e-01 3.3629779902463586e-01 3.1294640237969361e+01 1.8168103354161929e+01 -1 -2 0
3050 444 4 0.0000000000000000e+00 3.4729999999999999e+00 6.6205000000000003e-01 1.8169999999999999e+00 0 0 0
3074 444 4 0.0000000000000000e+00 3.4818500000000001e+00 2.4791200000000000e+00 3.5839300000000001e+00 0 0 0
3075 444 4 0.0000000000000000e+00 3.4729999999999999e+00 2.4790000000000001e+00 0.0000000000000000e+00 0 0 0
413 444 1 4.1499999999999998e-01 3.0709896960194620e+00 1.3294332273024494e+00 6.8854541509639775e+00 -1 0 0
412 444 2 -8.2999999999999996e-01 4.0212552758362232e+00 1.2820821529422268e+00 6.9902641781319446e+00 -1 0 0
340 444 2 -8.2999999999999996e-01 3.3523155309937480e+00 3.8055129143061697e+00 6.3990431851006919e+00 0 -4 0
342 444 1 4.1499999999999998e-01 3.5740841134071295e+00 2.8847703626774881e+00 6.5379115298300459e+00 0 -4 0
558 444 1 4.1499999999999998e-01 3.0017684660735457e+00 1.0861184125863774e+00 1.0703677267504137e+01 4 5 0
1464 444 1 4.1499999999999998e-01 4.0272778597432968e+00 2.8357800771594364e+00 1.5588900970697750e+01 0 -1 0
3048 444 11 3.5999999999999999e-01 3.6448403656499675e+00 5.6212863600737528e-01 1.2932261434796677e+01 -1 -1 0
1653 444 1 4.1499999999999998e-01 3.4404950552525038e+00 3.9330679317718999e+00 9.6903942332435289e+00 0 0 0
2865 444 1 4.1499999999999998e-01 3.9807608621200141e+00 1.1870896635402270e+00 8.7147423853963648e+00 2 -1 0
556 444 2 -8.2999999999999996e-01 2.1311555940372044e+00 1.3114976467736226e+00 1.1031502374628271e+01 4 5 0
1723 444 2 -8.2999999999999996e-01 2.8305903614949286e+00 1.0490862744269787e+00 1.7779349249738061e+01 2 2 0
1463 444 1 4.1499999999999998e-01 3.9923101875940605e+00 3.9032431163271917e+00 1.6661838757141247e+01 0 -1 0
1725 444 1 4.1499999999999998e-01 3.3827704090012092e+00 1.7428875124778440e+00 1.7418836792490701e+01 2 2 0
1462 444 2 -8.2999999999999996e-01 3.4320266686975160e+00 3.2918602094171829e+00 1.6183795307582546e+01 0 -1 0
1724 444 1 4.1499999999999998e-01 3.4266907908415116e+00 3.1173445542037559e-01 1.7910536296373909e+01 2 2 0
3064 444 4 0.0000000000000000e+00 3.4729999999999999e+00 6.1128000000000000e+00 0.0000000000000000e+00 0 0 0
3065 444 4 0.0000000000000000e+00 3.4694300000000000e+00 6.1094099999999996e+00 3.5789800000000001e+00 0 0 0
3068 444 4 0.0000000000000000e+00 3.4729999999999999e+00 4.2959500000000004e+00 1.8169999999999999e+00 0 0 0
3088 444 4 0.0000000000000000e+00 3.4729999999999999e+00 7.9297500000000003e+00 1.8169999999999999e+00 0 0 0
1927 444 2 -8.2999999999999996e-01 2.8911618335484852e+00 6.8833739105956369e+00 6.2991547165721107e+00 3 0 0
1928 444 1 4.1499999999999998e-01 2.3867942680976557e+00 7.6705875912025343e+00 6.0938731765156842e+00 3 0 0
1929 444 1 4.1499999999999998e-01 2.2309105443715875e+00 6.2249205994530126e+00 6.5153496564430764e+00 3 0 0
2615 444 1 4.1499999999999998e-01 3.9381771770454543e+00 7.8416728877526811e+00 9.8608990749265004e+00 -2 -1 0
1235 444 1 4.1499999999999998e-01 2.4292665496863770e+00 7.2697718064402714e+00 1.5064755694158240e+01 3 0 0
441 444 1 4.1499999999999998e-01 2.4012853034773767e+00 4.6584364523099504e+00 1.2656444328637384e+01 -1 1 0
1234 444 2 -8.2999999999999996e-01 3.1426615424112794e+00 7.3951348877739811e+00 1.4438989321700888e+01 3 0 0
1236 444 1 4.1499999999999998e-01 2.9741872778162706e+00 6.7514392353824961e+00 1.3750872921403149e+01 3 0 0
1294 444 2 -8.2999999999999996e-01 3.9669029643341300e+00 4.2439582122946193e+00 1.3042146997292608e+01 -1 1 0
1812 444 1 4.1499999999999998e-01 2.0712298330833478e+00 6.6125115398611589e+00 1.0040191845909526e+01 0 2 0
1088 444 1 4.1499999999999998e-01 2.8692670659984465e+00 4.6983257791088873e+00 1.9834539496459794e+01 1 -4 0
2347 444 2 -8.2999999999999996e-01 3.4563088487846603e+00 6.5949993638944573e+00 1.7498872178980623e+01 0 2 0
2349 444 1 4.1499999999999998e-01 3.1649937709211198e+00 5.8574703604036635e+00 1.8034986325627461e+01 0 2 0
1087 444 2 -8.2999999999999996e-01 2.3508158502424532e+00 4.8336010254664821e+00 1.9041354960700051e+01 1 -4 0
2348 444 1 4.1499999999999998e-01 2.6939453467294792e+00 7.1717120669810415e+00 1.7449514478643238e+01 0 2 0
3084 444 4 0.0000000000000000e+00 3.4729999999999999e+00 9.7467000000000006e+00 0.0000000000000000e+00 0 0 0
3085 444 4 0.0000000000000000e+00 3.4850400000000001e+00 9.7702600000000004e+00 3.5865999999999998e+00 0 0 0
3107 444 4 0.0000000000000000e+00 3.4729999999999999e+00 1.1563549999999999e+01 1.8169999999999999e+00 0 0 0
2989 444 2 -8.2999999999999996e-01 3.9437173106834718e+00 1.2058128103458989e+01 6.3375918600218419e+00 2 -5 0
2991 444 1 4.1499999999999998e-01 3.9280124496630253e+00 1.1129293834916989e+01 6.5683576218371744e+00 2 -5 0
2498 444 1 4.1499999999999998e-01 3.8697505089599260e+00 8.5527595451056708e+00 6.4184827281125081e+00 1 -3 0
1344 444 1 4.1499999999999998e-01 2.9460926149163598e+00 1.0590506191214700e+01 1.3353726329118029e+01 6 0 0
1342 444 2 -8.2999999999999996e-01 2.4085355083839950e+00 1.1269211651753173e+01 1.2945530917993077e+01 6 0 0
84 444 1 4.1499999999999998e-01 2.5207644642757030e+00 1.0024414629340262e+01 1.5630971670302385e+01 -1 2 0
2580 444 1 4.1499999999999998e-01 3.6028576929317739e+00 1.0381701773195013e+01 9.9350576596815365e+00 2 2 0
2850 444 1 4.1499999999999998e-01 2.1063241589120221e+00 1.0882391130881690e+01 1.1418765750056391e+01 2 3 0
2032 444 2 -8.2999999999999996e-01 2.2513096584467585e+00 9.9876894103972109e+00 1.8878740790506683e+01 3 -2 0
2034 444 1 4.1499999999999998e-01 2.0916480794845507e+00 9.9099306686220903e+00 1.7938159249411459e+01 3 -2 0
2315 444 1 4.1499999999999998e-01 3.8915519447268752e+00 9.7630933595380913e+00 1.8993878945059045e+01 1 -3 0
3125 444 4 0.0000000000000000e+00 3.4729999999999999e+00 1.5197450000000000e+01 1.8169999999999999e+00 0 0 0
3131 444 4 0.0000000000000000e+00 3.4818500000000001e+00 1.3380620000000000e+01 3.5839300000000001e+00 0 0 0
3132 444 4 0.0000000000000000e+00 3.4729999999999999e+00 1.3380500000000000e+01 0.0000000000000000e+00 0 0 0
417 444 1 4.1499999999999998e-01 3.8913112554461877e+00 1.5924258845998965e+01 6.7329134311090044e+00 -1 2 0
416 444 1 4.1499999999999998e-01 2.4322986813851553e+00 1.6053571881248345e+01 6.3502182351626608e+00 -1 2 0
2990 444 1 4.1499999999999998e-01 3.0276270621354788e+00 1.2332023467048465e+01 6.3822318515537511e+00 2 -5 0
529 444 2 -8.2999999999999996e-01 2.3029569808328794e+00 1.4100974764413396e+01 8.8576002044653475e+00 -3 3 0
530 444 1 4.1499999999999998e-01 2.4286290495505014e+00 1.3929153426299772e+01 9.7908289270412396e+00 -3 3 0
2461 444 2 -8.2999999999999996e-01 3.0245418534916531e+00 1.3895791713539086e+01 1.1383128837184946e+01 -2 1 0
531 444 1 4.1499999999999998e-01 3.1891013793314014e+00 1.4207572145445180e+01 8.5117432938915076e+00 -3 3 0
2463 444 1 4.1499999999999998e-01 3.1084338499409312e+00 1.2998881051928898e+01 1.1706773081526473e+01 -2 1 0
2462 444 1 4.1499999999999998e-01 3.8119812053453628e+00 1.4339346365418971e+01 1.1698455434086361e+01 -2 1 0
47 444 1 4.1499999999999998e-01 4.0084177826473910e+00 1.3391736837264222e+01 1.8074309395233975e+01 0 3 0
1980 444 1 4.1499999999999998e-01 3.0163405070774787e+00 1.4726073132352903e+01 1.6027586489021058e+01 0 3 0
1537 444 2 -8.2999999999999996e-01 3.3144160337834689e+00 1.4459721866111542e+01 1.9370647632956555e+01 -2 3 0
1538 444 1 4.1499999999999998e-01 3.3369201224566800e+00 1.5416461305171158e+01 1.9390014278846667e+01 -2 3 0
1978 444 2 -8.2999999999999996e-01 2.0672017759585239e+00 1.4735903902887134e+01 1.6151162210464655e+01 0 3 0
3121 444 4 0.0000000000000000e+00 3.4729999999999999e+00 1.7014299999999999e+01 0.0000000000000000e+00 0 0 0
3122 444 4 0.0000000000000000e+00 3.4694300000000000e+00 1.7010909999999999e+01 3.5789800000000001e+00 0 0 0
3145 444 4 0.0000000000000000e+00 3.4729999999999999e+00 1.8831250000000001e+01 1.8169999999999999e+00 0 0 0
415 444 2 -8.2999999999999996e-01 3.2249722302635315e+00 1.6569673668573053e+01 6.4969815011699579e+00 -1 2 0
959 444 1 4.1499999999999998e-01 2.4619901885774431e+00 1.9651670084074784e+01 6.6952524357996319e+00 2 -1 0
623 444 1 4.1499999999999998e-01 3.8344337068488086e+00 1.8979863293746366e+01 9.5642303209749109e+00 2 -1 0
2680 444 2 -8.2999999999999996e-01 3.5885009602243061e+00 2.0062177837921602e+01 1.2851083123554666e+01 -2 -5 0
1137 444 1 4.1499999999999998e-01 2.6941408527057642e+00 1.6874554886663709e+01 9.3903948847137642e+00 4 -3 0
1135 444 2 -8.2999999999999996e-01 2.5123596370896983e+00 1.7744878758662907e+01 9.7449706108550007e+00 4 -3 0
2681 444 1 4.1499999999999998e-01 3.7560833965330445e+00 1.9126558685929719e+01 1.2738101792052003e+01 -2 -5 0
715 444 2 -8.2999999999999996e-01 3.8691446647301926e+00 1.7467207858381865e+01 1.2316552290875997e+01 5 0 0
717 444 1 4.1499999999999998e-01 3.4600028181160498e+00 1.7420253494114000e+01 1.1452474401438209e+01 5 0 0
1891 444 2 -8.2999999999999996e-01 3.9399361782689675e+00 2.0128260416508667e+01 1.8760953706865543e+01 -3 -3 0
1892 444 1 4.1499999999999998e-01 3.9556559779741591e+00 1.9364405860479387e+01 1.8184316078857766e+01 -3 -3 0
1103 444 1 4.1499999999999998e-01 2.4554450216233819e+00 1.7814975937441325e+01 1.6753734602629230e+01 2 -2 0
1102 444 2 -8.2999999999999996e-01 3.3144977463064453e+00 1.7987231025245134e+01 1.7139207861296565e+01 2 -2 0
1104 444 1 4.1499999999999998e-01 3.4300707723247799e+00 1.7292878002729886e+01 1.7787859387573466e+01 2 -2 0
3141 444 4 0.0000000000000000e+00 3.4729999999999999e+00 2.0648199999999999e+01 0.0000000000000000e+00 0 0 0
3142 444 4 0.0000000000000000e+00 3.4850400000000001e+00 2.0671759999999999e+01 3.5865999999999998e+00 0 0 0
3164 444 4 0.0000000000000000e+00 3.4729999999999999e+00 2.2465050000000002e+01 1.8169999999999999e+00 0 0 0
3188 444 4 0.0000000000000000e+00 3.4818500000000001e+00 2.4282119999999999e+01 3.5839300000000001e+00 0 0 0
3189 444 4 0.0000000000000000e+00 3.4729999999999999e+00 2.4282000000000000e+01 0.0000000000000000e+00 0 0 0
607 444 2 -8.2999999999999996e-01 2.6094945794687949e+00 2.3372737134765032e+01 6.9157399732544533e+00 -4 1 0
609 444 1 4.1499999999999998e-01 2.6972605115367023e+00 2.3333020058504570e+01 7.8680801498870636e+00 -4 1 0
2225 444 1 4.1499999999999998e-01 3.6882228051399522e+00 2.1887329531389081e+01 6.5526577586180013e+00 -1 -5 0
2224 444 2 -8.2999999999999996e-01 3.9400870433011583e+00 2.1018973964264219e+01 6.8669106159589282e+00 -1 -5 0
909 444 1 4.1499999999999998e-01 3.9173763729272815e+00 2.4385833453504137e+01 6.4998217705838828e+00 3 2 0
1813 444 2 -8.2999999999999996e-01 3.4861126889607403e+00 2.4421776044487025e+01 9.4532866081837739e+00 -1 3 0
2549 444 1 4.1499999999999998e-01 3.2441122527525423e+00 2.2886040681608616e+01 9.8280885067519694e+00 5 -1 0
2548 444 2 -8.2999999999999996e-01 2.8883426163210140e+00 2.1998023061675667e+01 9.8610206386052823e+00 5 -1 0
2550 444 1 4.1499999999999998e-01 2.1646353543301466e+00 2.2052426018456188e+01 1.0485135988805375e+01 5 -1 0
1622 444 1 4.1499999999999998e-01 2.1667966454047081e+00 2.3820304000673829e+01 1.4983314217774334e+01 5 2 0
624 444 1 4.1499999999999998e-01 3.9527747456184104e+00 2.0487836694963267e+01 9.6267384645551353e+00 2 -1 0
1893 444 1 4.1499999999999998e-01 3.0365540784130345e+00 2.0441929626498016e+01 1.8719189359283614e+01 -3 -3 0
3178 444 4 0.0000000000000000e+00 3.4729999999999999e+00 2.7915800000000001e+01 0.0000000000000000e+00 0 0 0
3179 444 4 0.0000000000000000e+00 3.4694300000000000e+00 2.7912410000000001e+01 3.5789800000000001e+00 0 0 0
3182 444 4 0.0000000000000000e+00 3.4729999999999999e+00 2.6098949999999999e+01 1.8169999999999999e+00 0 0 0
2449 444 2 -8.2999999999999996e-01 3.5210978411791105e+00 2.7474757934732576e+01 7.0899549762768599e+00 0 -3 0
2451 444 1 4.1499999999999998e-01 3.9644339163647002e+00 2.7497043821359135e+01 7.9380051957691986e+00 0 -3 0
2450 444 1 4.1499999999999998e-01 3.7633942865351031e+00 2.6628188155014794e+01 6.7146620337159577e+00 0 -3 0
802 444 2 -8.2999999999999996e-01 2.0998334714721092e+00 2.8489931937639554e+01 1.1552793977062864e+01 -1 -1 0
2279 444 1 4.1499999999999998e-01 3.9444642887099204e+00 2.5830346815323800e+01 1.2456625802103607e+01 0 2 0
2280 444 1 4.1499999999999998e-01 2.7036021937178285e+00 2.6610095566019780e+01 1.2076956810981185e+01 0 2 0
2278 444 2 -8.2999999999999996e-01 2.9884778718178491e+00 2.5782976561477845e+01 1.2465482579731040e+01 0 2 0
1815 444 1 4.1499999999999998e-01 2.5660180181686543e+00 2.4639815849126233e+01 9.6020054323636490e+00 -1 3 0
1902 444 1 4.1499999999999998e-01 2.3077950751945733e+00 2.5865583405822431e+01 1.4189889456695125e+01 3 3 0
1814 444 1 4.1499999999999998e-01 3.9700777381579493e+00 2.5165207822023703e+01 9.8128964390928086e+00 -1 3 0
2405 444 1 4.1499999999999998e-01 3.9591417297563818e+00 2.5770537373311051e+01 1.8549578252605563e+01 2 -2 0
2768 444 1 4.1499999999999998e-01 3.7038701764311770e+00 2.5778178265798221e+01 1.6187871002528770e+01 3 -2 0
2406 444 1 4.1499999999999998e-01 2.7939041837914083e+00 2.5748736359726863e+01 1.9515829445059250e+01 2 -2 0
2404 444 2 -8.2999999999999996e-01 3.7504004430516580e+00 2.5766526568883737e+01 1.9483731800349382e+01 2 -2 0
3198 444 4 0.0000000000000000e+00 3.4729999999999999e+00 3.1549700000000001e+01 0.0000000000000000e+00 0 0 0
3199 444 4 0.0000000000000000e+00 3.4850400000000001e+00 3.1573260000000001e+01 3.5865999999999998e+00 0 0 0
3202 444 4 0.0000000000000000e+00 3.4729999999999999e+00 2.9732749999999999e+01 1.8169999999999999e+00 0 0 0
767 444 1 4.1499999999999998e-01 3.2756273517045367e+00 3.0809145741620682e+01 6.3447274861579688e+00 -1 -3 0
2322 444 1 4.1499999999999998e-01 2.7267214679204010e+00 2.8888704992567170e+01 7.0503314307132685e+00 1 4 0
766 444 2 -8.2999999999999996e-01 4.0094108915055910e+00 3.1400254407916215e+01 6.5132056761842705e+00 -1 -3 0
803 444 1 4.1499999999999998e-01 2.2700473540339026e+00 2.9245689259757491e+01 1.0990575193014022e+01 -1 -1 0