LAMMPS data file via write_data, version 11 Aug 2017, timestep = 1000000

3549 atoms
11 atom types
2024 bonds
5 bond types
1018 angles
5 angle types
12 dihedrals
4 dihedral types
9 impropers
1 improper types

0.0000000000000000e+00 3.2704500000000003e+01 xlo xhi
0.0000000000000000e+00 3.2704500000000003e+01 ylo yhi
0.0000000000000000e+00 8.0000000000000000e+01 zlo zhi

Masses

1 1.0079
2 15.9994
3 39.0983
4 63.546
5 12.011
6 1.0079
7 12.011
8 15.9994
9 15.9994
10 15.9994
11 1.0079

Bond Coeffs # harmonic

1 450 0.9572
2 570 1.229
3 450 1.364
4 570 1.229
5 553 0.945

Angle Coeffs # harmonic

1 100 123.32
2 85 124
3 55 104.52
4 35 113
5 100 123.32

Dihedral Coeffs # charmm

1 0.922 1 180 0
2 3.741 2 0 0
3 0.922 1 0 0
4 3.741 2 180 0

Improper Coeffs # umbrella

1 21 0

Atoms # full

3037 444 4 0.0000000000000000e+00 1.6569900000000000e+00 6.5256000000000003e-01 3.6006900000000002e+00 0 0 0
3039 444 4 0.0000000000000000e+00 1.6560500000000000e+00 2.4790000000000001e+00 1.8169999999999999e+00 0 0 0
3048 444 4 0.0000000000000000e+00 1.6560500000000000e+00 6.6205000000000003e-01 0.0000000000000000e+00 0 0 0
2558 444 1 4.1499999999999998e-01 4.1698445150106533e-01 3.2583697273466181e+00 6.1005831571382227e+00 0 2 0
2559 444 1 4.1499999999999998e-01 5.6603663137300264e-01 1.7561814822180368e+00 6.2150795331333830e+00 0 2 0
1816 444 2 -8.2999999999999996e-01 2.0125011265787394e+00 8.4688521228096447e-01 6.2084203210766846e+00 -2 4 0
993 444 1 4.1499999999999998e-01 1.9936575931423293e+00 1.7402430628766914e+00 1.3581191322697968e+01 2 -2 0
2908 444 2 -8.2999999999999996e-01 1.1693471047395985e+00 1.2478159928836963e+00 1.2355525720426799e+01 0 -1 0
960 444 1 4.1499999999999998e-01 1.7482830231815396e+00 1.6092500560105842e+00 1.0786871472471782e+01 -2 1 0
2909 444 1 4.1499999999999998e-01 6.5249266775860493e-01 4.4857424752771008e-01 1.2254007305606466e+01 0 -1 0
2468 444 1 4.1499999999999998e-01 1.0432882386388302e+00 3.2839738079141383e+00 1.5220693465163954e+01 1 0 0
2467 444 2 -8.2999999999999996e-01 2.7971962378015802e-01 3.3876354944121294e+00 1.5788539831357907e+01 1 0 0
2930 444 1 4.1499999999999998e-01 1.5073368941537091e-01 1.9107278442150613e+00 9.1475447606377216e+00 -4 -2 0
2910 444 1 4.1499999999999998e-01 5.3319320383804358e-01 1.9576991926611556e+00 1.2268313949135793e+01 0 -1 0
958 444 2 -8.2999999999999996e-01 1.8274464790912910e+00 1.9852066315688659e+00 9.9101601796556640e+00 -2 1 0
1871 444 1 4.1499999999999998e-01 1.9862908101380012e+00 3.8059856429706072e+00 1.3440240007702286e+01 -6 4 0
3054 444 4 0.0000000000000000e+00 1.6560500000000000e+00 4.2959500000000004e+00 0.0000000000000000e+00 0 0 0
3055 444 4 0.0000000000000000e+00 1.6651100000000001e+00 4.2967700000000004e+00 3.5705600000000000e+00 0 0 0
3057 444 4 0.0000000000000000e+00 1.6560500000000000e+00 6.1128000000000000e+00 1.8169999999999999e+00 0 0 0
3074 444 4 0.0000000000000000e+00 1.6560500000000000e+00 7.9297500000000003e+00 0.0000000000000000e+00 0 0 0
3075 444 4 0.0000000000000000e+00 1.6556900000000001e+00 7.9243600000000001e+00 3.5814599999999999e+00 0 0 0
173 444 1 4.1499999999999998e-01 1.4942305701815983e+00 6.7101064024088011e+00 6.7875320449992618e+00 -2 1 0
172 444 2 -8.2999999999999996e-01 1.3217049454611991e+00 5.7762822203936395e+00 6.6673630355071163e+00 -2 1 0
174 444 1 4.1499999999999998e-01 4.1900210525699655e-01 5.6589769685103350e+00 6.9633356873286445e+00 -2 1 0
665 444 1 4.1499999999999998e-01 1.2642373663378690e+00 6.6288599480625034e+00 9.2167531590307288e+00 6 3 0
1870 444 2 -8.2999999999999996e-01 1.7842425888363538e+00 4.6301969125638234e+00 1.2997426061995185e+01 -6 4 0
1019 444 1 4.1499999999999998e-01 1.5872713111760717e-01 5.6570541916308228e+00 1.2009192179126170e+01 -1 1 0
247 444 2 -8.2999999999999996e-01 8.4207803664228675e-01 7.8136496791010961e+00 1.1698662136578928e+01 1 -1 0
248 444 1 4.1499999999999998e-01 1.0532365354119653e+00 7.4264683721828924e+00 1.0849112453430280e+01 1 -1 0
936 444 1 4.1499999999999998e-01 3.0228300411197667e-01 6.3564706370350610e+00 1.4255336186382731e+01 3 -1 0
3009 444 1 4.1499999999999998e-01 4.0430457033369882e-01 6.4477573330793252e+00 1.6580944455274256e+01 0 -3 0
579 444 1 4.1499999999999998e-01 1.1887655584024215e+00 8.0862696197299559e+00 1.8373363475498095e+01 4 -3 0
3007 444 2 -8.2999999999999996e-01 8.1760525836691789e-01 6.5410473902923476e+00 1.7439263733846250e+01 0 -3 0
3008 444 1 4.1499999999999998e-01 1.6577038731191187e+00 6.0907915025373773e+00 1.7351308577766886e+01 0 -3 0
611 444 1 4.1499999999999998e-01 3.5139352593310708e-01 5.7241736815365369e+00 1.9205672290783259e+01 7 -1 0
3077 444 4 0.0000000000000000e+00 1.6560500000000000e+00 9.7467000000000006e+00 1.8169999999999999e+00 0 0 0
3094 444 4 0.0000000000000000e+00 1.6569900000000000e+00 1.1554060000000000e+01 3.6006900000000002e+00 0 0 0
3105 444 4 0.0000000000000000e+00 1.6560500000000000e+00 1.1563549999999999e+01 0.0000000000000000e+00 0 0 0
1982 444 1 4.1499999999999998e-01 1.1797501687965790e+00 9.0887314275308118e+00 7.3156389363822614e+00 -3 0 0
1384 444 2 -8.2999999999999996e-01 1.2939007615813307e+00 1.1995965098982809e+01 6.5926516994446862e+00 -1 1 0
1981 444 2 -8.2999999999999996e-01 1.7759239218932614e+00 8.3567917793810214e+00 7.1572941534966317e+00 -3 0 0
3021 444 3 1.0000000000000000e+00 1.6156175221471869e+00 1.2156874251694521e+01 1.1361864428542143e+01 3 -3 0
249 444 1 4.1499999999999998e-01 4.0809748702889076e-01 8.6395714780481683e+00 1.1484778762662737e+01 1 -1 0
2770 444 2 -8.2999999999999996e-01 2.0009081681188605e+00 1.0353741625402913e+01 9.3761081843776122e+00 -6 2 0
929 444 1 4.1499999999999998e-01 1.6392596725756943e+00 1.0532438981743384e+01 1.7417925836101766e+01 2 -1 0
577 444 2 -8.2999999999999996e-01 1.2481334609180899e+00 8.7708871827427917e+00 1.9039701916673035e+01 4 -3 0
3096 444 4 0.0000000000000000e+00 1.6560500000000000e+00 1.3380500000000000e+01 1.8169999999999999e+00 0 0 0
3111 444 4 0.0000000000000000e+00 1.6560500000000000e+00 1.5197450000000000e+01 0.0000000000000000e+00 0 0 0
3112 444 4 0.0000000000000000e+00 1.6651100000000001e+00 1.5198270000000001e+01 3.5705600000000000e+00 0 0 0
982 444 2 -8.2999999999999996e-01 8.1183891862807811e-01 1.4649319485665842e+01 6.6362670829366044e+00 2 2 0
984 444 1 4.1499999999999998e-01 5.8730783050563107e-01 1.5556278285331970e+01 6.8442175028107064e+00 2 2 0
1385 444 1 4.1499999999999998e-01 1.0565898984163244e+00 1.2920608956879583e+01 6.6630018601481353e+00 -1 1 0
2415 444 1 4.1499999999999998e-01 1.2706806330402771e+00 1.5708293984518965e+01 1.0386582797733661e+01 5 -3 0
476 444 1 4.1499999999999998e-01 1.5391924738599236e+00 1.3755284690229658e+01 1.5406699447628236e+01 3 3 0
2413 444 2 -8.2999999999999996e-01 1.9940655015438915e+00 1.5116702335225254e+01 1.0179299443817474e+01 5 -3 0
2542 444 2 -8.2999999999999996e-01 1.4069290987123648e-01 1.2554637565232079e+01 9.1558412237798930e+00 0 -1 0
2857 444 2 -8.2999999999999996e-01 4.0231651535567536e-01 1.4741375449711596e+01 1.3790675577383723e+01 -1 4 0
2544 444 1 4.1499999999999998e-01 8.1620576555956903e-01 1.2348999716925096e+01 8.5096000568769696e+00 0 -1 0
2858 444 1 4.1499999999999998e-01 1.2815079912186664e-01 1.4931476517023206e+01 1.2893498403079223e+01 -1 4 0
475 444 2 -8.2999999999999996e-01 1.7644971293830933e+00 1.3686541981901156e+01 1.6334462534705782e+01 3 3 0
477 444 1 4.1499999999999998e-01 1.9559222466470949e+00 1.2758058824933897e+01 1.6466780856783554e+01 3 3 0
2271 444 1 4.1499999999999998e-01 5.8019277316198270e-02 1.5621129685050054e+01 1.6163762667460009e+01 3 0 0
3114 444 4 0.0000000000000000e+00 1.6560500000000000e+00 1.7014299999999999e+01 1.8169999999999999e+00 0 0 0
3131 444 4 0.0000000000000000e+00 1.6560500000000000e+00 1.8831250000000001e+01 0.0000000000000000e+00 0 0 0
3132 444 4 0.0000000000000000e+00 1.6556900000000001e+00 1.8825859999999999e+01 3.5814599999999999e+00 0 0 0
58 444 2 -8.2999999999999996e-01 1.8210303009165776e-01 1.6814347612063283e+01 1.1113855322262458e+01 -3 -4 0
2380 444 2 -8.2999999999999996e-01 7.1683053468016644e-01 1.7826920779448820e+01 8.4711593456624819e+00 -5 -5 0
1432 444 2 -8.2999999999999996e-01 1.1781391207836061e+00 2.0118366517224207e+01 1.1546087381350256e+01 2 0 0
1433 444 1 4.1499999999999998e-01 2.9021369605383351e-01 2.0409636220032294e+01 1.1338763385320181e+01 2 0 0
2381 444 1 4.1499999999999998e-01 6.8583799409178758e-01 1.7344752631260246e+01 9.2974677399689174e+00 -5 -5 0
99 444 1 4.1499999999999998e-01 1.6384035981029588e+00 1.7953950272925223e+01 1.3881084694531197e+01 -4 2 0
98 444 1 4.1499999999999998e-01 1.9240433694102370e+00 1.8564179772144520e+01 1.2525383576312427e+01 -4 2 0
2047 444 2 -8.2999999999999996e-01 1.2429406769532936e+00 1.8718180475567330e+01 1.5502505538862577e+01 -1 2 0
2049 444 1 4.1499999999999998e-01 8.7185205111691455e-01 1.9580711015480937e+01 1.5688426806831133e+01 -1 2 0
59 444 1 4.1499999999999998e-01 5.5017016937876984e-01 1.7344049739100893e+01 1.1821085275822231e+01 -3 -4 0
2270 444 1 4.1499999999999998e-01 3.2759067419540461e-02 1.7130134380440488e+01 1.6044758347810212e+01 3 0 0
267 444 1 4.1499999999999998e-01 8.6841953306434294e-01 1.8445588923683676e+01 1.7979679870219204e+01 4 2 0
265 444 2 -8.2999999999999996e-01 1.2761215375269521e+00 1.7724279138024556e+01 1.8458974292972194e+01 4 2 0
266 444 1 4.1499999999999998e-01 1.7962388723376899e+00 1.7262714758580870e+01 1.7801198901415955e+01 4 2 0
3134 444 4 0.0000000000000000e+00 1.6560500000000000e+00 2.0648199999999999e+01 1.8169999999999999e+00 0 0 0
3151 444 4 0.0000000000000000e+00 1.6569900000000000e+00 2.2455559999999998e+01 3.6006900000000002e+00 0 0 0
3153 444 4 0.0000000000000000e+00 1.6560500000000000e+00 2.4282000000000000e+01 1.8169999999999999e+00 0 0 0
3162 444 4 0.0000000000000000e+00 1.6560500000000000e+00 2.2465050000000002e+01 0.0000000000000000e+00 0 0 0
956 444 1 4.1499999999999998e-01 1.8548846717347158e+00 2.0925060003756162e+01 6.0784507238573759e+00 1 3 0
808 444 2 -8.2999999999999996e-01 1.8819543038240716e+00 2.3704909889447809e+01 6.8111500635223114e+00 -1 1 0
810 444 1 4.1499999999999998e-01 1.1693254515349560e+00 2.3596218254695671e+01 7.4408945393661750e+00 -1 1 0
919 444 2 -8.2999999999999996e-01 1.5680533285509821e-01 2.0801099841778623e+01 6.6646162462923497e+00 0 0 0
1371 444 1 4.1499999999999998e-01 6.4905789604836117e-01 2.2096649727416551e+01 1.4509404052348357e+01 3 0 0
1369 444 2 -8.2999999999999996e-01 3.9198368056662747e-01 2.1201027022979506e+01 1.4290303496379812e+01 3 0 0
340 444 2 -8.2999999999999996e-01 3.5744653626201751e-02 2.3951348572034256e+01 8.8748014240689663e+00 -5 0 0
1370 444 1 4.1499999999999998e-01 8.9749528194101436e-01 2.0991572227529691e+01 1.3504925176419677e+01 3 0 0
36 444 1 4.1499999999999998e-01 1.9214999441239096e+00 2.3643928242274821e+01 9.6332271917288335e+00 -3 0 0
1434 444 1 4.1499999999999998e-01 1.7311162091765333e+00 2.0553548851651172e+01 1.0897192448733824e+01 2 0 0
2121 444 1 4.1499999999999998e-01 1.0527389946466537e+00 2.1175379789945499e+01 1.7694279635877496e+01 1 2 0
2119 444 2 -8.2999999999999996e-01 5.4578902828933273e-01 2.0598501740159517e+01 1.8265633540273857e+01 1 2 0
2120 444 1 4.1499999999999998e-01 1.0879942475494047e+00 2.0498825864966349e+01 1.9048135989849449e+01 1 2 0
3168 444 4 0.0000000000000000e+00 1.6560500000000000e+00 2.6098949999999999e+01 0.0000000000000000e+00 0 0 0
3169 444 4 0.0000000000000000e+00 1.6651100000000001e+00 2.6099769999999999e+01 3.5705600000000000e+00 0 0 0
3171 444 4 0.0000000000000000e+00 1.6560500000000000e+00 2.7915800000000001e+01 1.8169999999999999e+00 0 0 0
809 444 1 4.1499999999999998e-01 1.7200002237647860e+00 2.4559016540813019e+01 6.4105198841309141e+00 -1 1 0
1851 444 1 4.1499999999999998e-01 3.8478193285402494e-03 2.6113832378840144e+01 7.4262708513597424e+00 1 -2 0
2052 444 1 4.1499999999999998e-01 1.3809440476865835e+00 2.8500995287097204e+01 6.5331906420284467e+00 0 -1 0
781 444 2 -8.2999999999999996e-01 1.1710946156768101e+00 2.6509392560990719e+01 8.8451380029648181e+00 -2 2 0
341 444 1 4.1499999999999998e-01 1.5075394960780722e-01 2.4895774905741110e+01 8.7696124100159505e+00 -5 0 0
782 444 1 4.1499999999999998e-01 1.8938953247125876e+00 2.6759291157717588e+01 8.2695151324888201e+00 -2 2 0
783 444 1 4.1499999999999998e-01 1.3780149452614638e+00 2.6922566801216487e+01 9.6834117541361007e+00 -2 2 0
466 444 2 -8.2999999999999996e-01 1.1917314473890453e-02 2.5350299341440405e+01 1.3085653655047579e+01 4 -4 0
468 444 1 4.1499999999999998e-01 6.0229886725613135e-01 2.4633133063573400e+01 1.3316638534785461e+01 4 -4 0
1860 444 1 4.1499999999999998e-01 9.5440964770190817e-02 2.5729250748139400e+01 1.4646626801389244e+01 1 -1 0
369 444 1 4.1499999999999998e-01 1.4640087106182553e+00 2.5213950751710463e+01 1.6036423752802371e+01 -3 1 0
1842 444 1 4.1499999999999998e-01 8.4259089760784167e-01 2.7272409168666982e+01 1.6450217807068423e+01 -3 1 0
1840 444 2 -8.2999999999999996e-01 1.2561656079005741e+00 2.7895760660278359e+01 1.7047395106796081e+01 -3 1 0
1841 444 1 4.1499999999999998e-01 1.5789267311254727e+00 2.8594864577507128e+01 1.6478790828059935e+01 -3 1 0
3188 444 4 0.0000000000000000e+00 1.6560500000000000e+00 2.9732749999999999e+01 0.0000000000000000e+00 0 0 0
3189 444 4 0.0000000000000000e+00 1.6556900000000001e+00 2.9727360000000001e+01 3.5814599999999999e+00 0 0 0
3191 444 4 0.0000000000000000e+00 1.6560500000000000e+00 3.1549700000000001e+01 1.8169999999999999e+00 0 0 0
2994 444 1 4.1499999999999998e-01 8.3492775753065929e-01 3.0783487132785250e+01 6.9434374571664126e+00 -1 4 0
2050 444 2 -8.2999999999999996e-01 1.6616613476079791e+00 2.9415522577452933e+01 6.5659006761233041e+00 0 -1 0
2993 444 1 4.1499999999999998e-01 1.1862181354192953e+00 3.2253457760399016e+01 6.8558212243832717e+00 -1 4 0
2992 444 2 -8.2999999999999996e-01 5.6019899882344293e-01 3.1647080551705525e+01 7.2515971725209472e+00 -1 4 0
571 444 2 -8.2999999999999996e-01 1.2441669585575528e+00 2.9146860706689100e+01 1.1913199592863624e+01 -4 1 0
573 444 1 4.1499999999999998e-01 2.0141617592460821e+00 2.9219266075367326e+01 1.1349198063222751e+01 -4 1 0
1879 444 2 -8.2999999999999996e-01 5.7398907644902930e-01 3.1098466890982863e+01 9.9015027964592477e+00 1 -3 0
1881 444 1 4.1499999999999998e-01 3.3938089603784699e-01 3.1059204497492228e+01 8.9743297198896101e+00 1 -3 0
851 444 1 4.1499999999999998e-01 1.5860677093917852e+00 3.0935083052380662e+01 1.5726479021943497e+01 -3 -6 0
572 444 1 4.1499999999999998e-01 5.1041218122715526e-01 2.9394282244814086e+01 1.1350510764769510e+01 -4 1 0
2510 444 1 4.1499999999999998e-01 1.4016248280818884e+00 2.9439010614949485e+01 1.4026505529631102e+01 0 3 0
2509 444 2 -8.2999999999999996e-01 1.8093999257599358e+00 2.9334089790171991e+01 1.4886123933793831e+01 0 3 0
2066 444 1 4.1499999999999998e-01 1.7152671966200983e+00 3.1384736294466872e+01 1.8323383035999353e+01 -1 -2 0
850 444 1 4.1499999999999998e-01 5.2914534631425258e-01 3.1322867754335800e+01 1.6738621964265658e+01 -3 -6 0
847 444 2 -8.2999999999999996e-01 1.4571096458779291e+00 3.1435120878766931e+01 1.6532434268911555e+01 -3 -6 0
2067 444 1 4.1499999999999998e-01 1.3184190684744301e+00 3.1321943814907431e+01 1.9782993890761144e+01 -1 -2 0
3038 444 4 0.0000000000000000e+00 3.4729999999999999e+00 6.6205000000000003e-01 1.8169999999999999e+00 0 0 0
3062 444 4 0.0000000000000000e+00 3.4573000000000000e+00 2.4542700000000002e+00 3.6023800000000001e+00 0 0 0
3063 444 4 0.0000000000000000e+00 3.4729999999999999e+00 2.4790000000000001e+00 0.0000000000000000e+00 0 0 0
1507 444 2 -8.2999999999999996e-01 2.6256713181101521e+00 3.4124728896531469e+00 6.6279313661599950e+00 5 4 0
1817 444 1 4.1499999999999998e-01 2.2026139004167224e+00 1.7617021772140495e+00 6.4162638359940019e+00 -2 4 0
1509 444 1 4.1499999999999998e-01 3.5723302536990507e+00 3.5270000137446429e+00 6.7113114570166195e+00 5 4 0
1818 444 1 4.1499999999999998e-01 2.8641985733015680e+00 4.1127953972213666e-01 6.2414507613860311e+00 -2 4 0
959 444 1 4.1499999999999998e-01 2.3796496841979780e+00 2.7579254415464187e+00 1.0029364719558288e+01 -2 1 0
992 444 1 4.1499999999999998e-01 2.7002311095542826e+00 1.9240908018841629e+00 1.4907407404660203e+01 2 -2 0
991 444 2 -8.2999999999999996e-01 2.3209929238186464e+00 2.4136518187125446e+00 1.4177516831377268e+01 2 -2 0
321 444 1 4.1499999999999998e-01 4.0294051772141346e+00 4.2425141686102996e-01 1.2172486509667323e+01 5 -2 0
185 444 1 4.1499999999999998e-01 3.0263554818979714e+00 3.0485219024981558e+00 1.7679221779437274e+01 -1 6 0
317 444 1 4.1499999999999998e-01 3.5381669066104133e+00 1.1039970692866341e+00 1.7449147740621967e+01 0 3 0
184 444 2 -8.2999999999999996e-01 3.3475414173053246e+00 3.9067368848344306e+00 1.7955878399052523e+01 -1 6 0
318 444 1 4.1499999999999998e-01 2.4551902316277352e+00 5.3246032208659622e-01 1.6558977831052797e+01 0 3 0
316 444 2 -8.2999999999999996e-01 3.0128541788074452e+00 1.3019085328309516e+00 1.6673835239807723e+01 0 3 0
1481 444 1 4.1499999999999998e-01 2.1159021093943831e+00 3.9245009671802071e+00 1.9801531711748279e+01 2 0 0
186 444 1 4.1499999999999998e-01 3.9289766569688971e+00 3.7192539705155490e+00 1.8692774487371391e+01 -1 6 0
2061 444 1 4.1499999999999998e-01 3.3216879104567076e+00 5.1900620100220118e-02 1.8781170956279684e+01 -3 0 0
3052 444 4 0.0000000000000000e+00 3.4729999999999999e+00 6.1128000000000000e+00 0.0000000000000000e+00 0 0 0
3053 444 4 0.0000000000000000e+00 3.4766800000000000e+00 6.1181400000000004e+00 3.5920600000000000e+00 0 0 0
3056 444 4 0.0000000000000000e+00 3.4729999999999999e+00 4.2959500000000004e+00 1.8169999999999999e+00 0 0 0
3076 444 4 0.0000000000000000e+00 3.4729999999999999e+00 7.9297500000000003e+00 1.8169999999999999e+00 0 0 0
2667 444 1 4.1499999999999998e-01 3.6101032958987074e+00 7.0965339436211483e+00 6.5949919817634015e+00 -1 -3 0
1508 444 1 4.1499999999999998e-01 2.2718910942424069e+00 4.3009373513574474e+00 6.6691903900983558e+00 5 4 0
2086 444 2 -8.2999999999999996e-01 2.8762892587325002e+00 5.4064936112499300e+00 1.5710989797844647e+01 0 -2 0
664 444 2 -8.2999999999999996e-01 2.1685370915975759e+00 6.3416471722483498e+00 9.3431777929180253e+00 6 3 0
666 444 1 4.1499999999999998e-01 2.4863948190756471e+00 6.1538851008332491e+00 8.4600330488650624e+00 6 3 0
2025 444 1 4.1499999999999998e-01 2.8090516747521601e+00 5.1054184608569058e+00 1.0231594228955627e+01 1 -2 0
2087 444 1 4.1499999999999998e-01 2.6106494696813209e+00 5.0107880889682752e+00 1.4880878590959385e+01 0 -2 0
1872 444 1 4.1499999999999998e-01 2.2663178626358320e+00 4.5835100526708494e+00 1.2171801668402507e+01 -6 4 0
15 444 1 4.1499999999999998e-01 3.5594224370086640e+00 7.7116029160669051e+00 9.8908258705014429e+00 3 3 0
2023 444 2 -8.2999999999999996e-01 3.0773858965402101e+00 4.3318312884957964e+00 1.0727367874149147e+01 1 -2 0
2024 444 1 4.1499999999999998e-01 4.0091260792709802e+00 4.2327079738363604e+00 1.0531749227653066e+01 1 -2 0
2088 444 1 4.1499999999999998e-01 2.6315078216142056e+00 4.7607914739743684e+00 1.6373849485031130e+01 0 -2 0
3072 444 4 0.0000000000000000e+00 3.4729999999999999e+00 9.7467000000000006e+00 0.0000000000000000e+00 0 0 0
3073 444 4 0.0000000000000000e+00 3.4625400000000002e+00 9.7446500000000000e+00 3.6002299999999998e+00 0 0 0
3095 444 4 0.0000000000000000e+00 3.4729999999999999e+00 1.1563549999999999e+01 1.8169999999999999e+00 0 0 0
1386 444 1 4.1499999999999998e-01 2.2479475158528697e+00 1.1998289074735293e+01 6.5150550801055962e+00 -1 1 0
517 444 2 -8.2999999999999996e-01 4.0333245350682976e+00 9.5990558690049959e+00 6.5847002574516837e+00 3 -1 0
1983 444 1 4.1499999999999998e-01 2.5988806435795424e+00 8.7698248689123481e+00 6.8958026532583618e+00 -3 0 0
2546 444 1 4.1499999999999998e-01 3.4921414573420724e+00 9.3639101012923138e+00 1.1529824453483389e+01 -1 2 0
2547 444 1 4.1499999999999998e-01 2.3958236924608354e+00 8.9128229152915566e+00 1.2471367281494253e+01 -1 2 0
2519 444 1 4.1499999999999998e-01 3.1008334027461730e+00 1.0257174774894935e+01 1.3899324362942581e+01 -4 2 0
2518 444 2 -8.2999999999999996e-01 3.0539319787870345e+00 1.0839319494706814e+01 1.4657703961199124e+01 -4 2 0
2771 444 1 4.1499999999999998e-01 2.5824177745342105e+00 9.7127304724263546e+00 9.7849897259441736e+00 -6 2 0
13 444 2 -8.2999999999999996e-01 4.0722337316262793e+00 8.5065551551895897e+00 1.0036796291873237e+01 3 3 0
2545 444 2 -8.2999999999999996e-01 2.8066776996547400e+00 9.6975906862601136e+00 1.2108640970572402e+01 -1 2 0
2520 444 1 4.1499999999999998e-01 2.8229402594009669e+00 1.1692845388745944e+01 1.4291141238792070e+01 -4 2 0
2772 444 1 4.1499999999999998e-01 2.5910003713650727e+00 1.0979078327473003e+01 8.9554207675316277e+00 -6 2 0
930 444 1 4.1499999999999998e-01 2.5058057026024416e+00 1.0880591301285110e+01 1.6226378832527615e+01 2 -1 0
928 444 2 -8.2999999999999996e-01 2.2396536882624454e+00 1.1201041608286536e+01 1.7088184134926109e+01 2 -1 0
578 444 1 4.1499999999999998e-01 2.1772032914401720e+00 8.8039858319380659e+00 1.9267662146153075e+01 4 -3 0
3113 444 4 0.0000000000000000e+00 3.4729999999999999e+00 1.5197450000000000e+01 1.8169999999999999e+00 0 0 0
3119 444 4 0.0000000000000000e+00 3.4573000000000000e+00 1.3355770000000000e+01 3.6023800000000001e+00 0 0 0
3120 444 4 0.0000000000000000e+00 3.4729999999999999e+00 1.3380500000000000e+01 0.0000000000000000e+00 0 0 0
1837 444 2 -8.2999999999999996e-01 3.5528396769346910e+00 1.4887849144990112e+01 6.6839167046618222e+00 0 0 0
1839 444 1 4.1499999999999998e-01 3.6438799802542468e+00 1.5776186642830814e+01 6.3392429359744584e+00 0 0 0
1838 444 1 4.1499999999999998e-01 2.6174139622744352e+00 1.4697622288316369e+01 6.6130341176351362e+00 0 0 0
1203 444 1 4.1499999999999998e-01 4.0848528609858850e+00 1.3343282825627066e+01 6.5836979086446439e+00 -1 2 0
89 444 1 4.1499999999999998e-01 3.8383816523862957e+00 1.3547337544654740e+01 1.3597893447433758e+01 -1 4 0
88 444 2 -8.2999999999999996e-01 2.8979870947604414e+00 1.3372784486310168e+01 1.3635609128838432e+01 -1 4 0
2877 444 1 4.1499999999999998e-01 3.3123219898449183e+00 1.3107504115440245e+01 8.8002318148444818e+00 3 3 0
2875 444 2 -8.2999999999999996e-01 3.6493916175534964e+00 1.2515458179147442e+01 9.4726137841439968e+00 3 3 0
90 444 1 4.1499999999999998e-01 2.4895219226723300e+00 1.4226940362814018e+01 1.3494873617502803e+01 -1 4 0
2414 444 1 4.1499999999999998e-01 2.6998628876369311e+00 1.5693689464309148e+01 9.8874631579784396e+00 5 -3 0
79 444 2 -8.2999999999999996e-01 3.1196929171445222e+00 1.5793281186341241e+01 1.7384498554439418e+01 -2 0 0
81 444 1 4.1499999999999998e-01 2.4621049987034178e+00 1.5097716558232742e+01 1.7385238046401575e+01 -2 0 0
2257 444 2 -8.2999999999999996e-01 2.8066318897204900e+00 1.2800872443539667e+01 1.9468608595687126e+01 1 -2 0
2258 444 1 4.1499999999999998e-01 2.5148046229557761e+00 1.2436635060228536e+01 1.8632905406792883e+01 1 -2 0
2259 444 1 4.1499999999999998e-01 3.7392666907957839e+00 1.2975115747556350e+01 1.9341866891938185e+01 1 -2 0
80 444 1 4.1499999999999998e-01 3.7107403601881992e+00 1.5563998560839368e+01 1.6667334085941107e+01 -2 0 0
3109 444 4 0.0000000000000000e+00 3.4729999999999999e+00 1.7014299999999999e+01 0.0000000000000000e+00 0 0 0
3110 444 4 0.0000000000000000e+00 3.4766800000000000e+00 1.7019639999999999e+01 3.5920600000000000e+00 0 0 0
3133 444 4 0.0000000000000000e+00 3.4729999999999999e+00 1.8831250000000001e+01 1.8169999999999999e+00 0 0 0
1523 444 1 4.1499999999999998e-01 2.2138946672930322e+00 1.8003570453924560e+01 6.9442419835042388e+00 1 2 0
1522 444 2 -8.2999999999999996e-01 3.0758752970829679e+00 1.7753314687967340e+01 6.6116856240650330e+00 1 2 0
1524 444 1 4.1499999999999998e-01 3.5332283921903351e+00 1.8584008170538819e+01 6.4812665948966695e+00 1 2 0
260 444 1 4.1499999999999998e-01 3.8474860484121804e+00 1.6664436793029285e+01 8.3687654605484099e+00 1 -2 0
2500 444 2 -8.2999999999999996e-01 3.6280118819863252e+00 2.0236070649572699e+01 1.5630275556379569e+01 1 2 0
2975 444 1 4.1499999999999998e-01 3.4082896077473173e+00 1.9875502015906456e+01 8.6150075771676367e+00 0 -3 0
2974 444 2 -8.2999999999999996e-01 3.8893355267367444e+00 1.9754009652982425e+01 9.4335835722162464e+00 0 -3 0
261 444 1 4.1499999999999998e-01 3.8545927401809630e+00 1.7837390146149541e+01 9.3258574677551191e+00 1 -2 0
97 444 2 -8.2999999999999996e-01 2.2383041050872277e+00 1.7898533666550062e+01 1.3137256022187417e+01 -4 2 0
259 444 2 -8.2999999999999996e-01 3.8827267719414693e+00 1.6880939949902544e+01 9.3004930615907497e+00 1 -2 0
2048 444 1 4.1499999999999998e-01 2.1893194134373410e+00 1.8844214644746753e+01 1.5571174522666354e+01 -1 2 0
272 444 1 4.1499999999999998e-01 4.0790360022547674e+00 1.9047242301253117e+01 1.9148686155216961e+01 -3 -4 0
3129 444 4 0.0000000000000000e+00 3.4729999999999999e+00 2.0648199999999999e+01 0.0000000000000000e+00 0 0 0
3130 444 4 0.0000000000000000e+00 3.4625400000000002e+00 2.0646149999999999e+01 3.6002299999999998e+00 0 0 0
3152 444 4 0.0000000000000000e+00 3.4729999999999999e+00 2.2465050000000002e+01 1.8169999999999999e+00 0 0 0
3176 444 4 0.0000000000000000e+00 3.4573000000000000e+00 2.4257269999999998e+01 3.6023800000000001e+00 0 0 0
3177 444 4 0.0000000000000000e+00 3.4729999999999999e+00 2.4282000000000000e+01 0.0000000000000000e+00 0 0 0
955 444 2 -8.2999999999999996e-01 2.7288579026322384e+00 2.1283897518387281e+01 6.2321982054769469e+00 1 3 0
957 444 1 4.1499999999999998e-01 2.5905324992075105e+00 2.2227901186982439e+01 6.3093669520807794e+00 1 3 0
945 444 1 4.1499999999999998e-01 3.8747474035049074e+00 2.4391783773900240e+01 6.5398584943271363e+00 3 -3 0
718 444 2 -8.2999999999999996e-01 2.0895822123345815e+00 2.3700074377008875e+01 1.3705958074293699e+01 -5 -3 0
35 444 1 4.1499999999999998e-01 2.4539796091834747e+00 2.2714122745999234e+01 8.5637308987058489e+00 -3 0 0
720 444 1 4.1499999999999998e-01 2.6548134088170254e+00 2.4200459508910061e+01 1.3117434277835414e+01 -5 -3 0
34 444 2 -8.2999999999999996e-01 2.6729063859791586e+00 2.3092449627651966e+01 9.4153011402969415e+00 -3 0 0
1112 444 1 4.1499999999999998e-01 3.9888922928408412e+00 2.2457134424981231e+01 1.0375582731387606e+01 -2 -1 0
719 444 1 4.1499999999999998e-01 2.3785259840581188e+00 2.3947641755122962e+01 1.4584282473459185e+01 -5 -3 0
2502 444 1 4.1499999999999998e-01 3.8784505376276579e+00 2.0748923489512343e+01 1.4861839285510783e+01 1 2 0
297 444 1 4.1499999999999998e-01 3.4427160868696483e+00 2.2782581435085493e+01 1.8467431757294094e+01 4 -1 0
295 444 2 -8.2999999999999996e-01 3.2467482473029707e+00 2.2432911951270992e+01 1.7598202299142880e+01 4 -1 0
296 444 1 4.1499999999999998e-01 2.9611237821283498e+00 2.3193642970618725e+01 1.7092298003932896e+01 4 -1 0
2501 444 1 4.1499999999999998e-01 3.5299576899535294e+00 2.0882936765364576e+01 1.6328975393486864e+01 1 2 0
3166 444 4 0.0000000000000000e+00 3.4729999999999999e+00 2.7915800000000001e+01 0.0000000000000000e+00 0 0 0
3167 444 4 0.0000000000000000e+00 3.4766800000000000e+00 2.7921140000000001e+01 3.5920600000000000e+00 0 0 0
3170 444 4 0.0000000000000000e+00 3.4729999999999999e+00 2.6098949999999999e+01 1.8169999999999999e+00 0 0 0
244 444 2 -8.2999999999999996e-01 2.8590454462047985e+00 2.6904283055349474e+01 6.7957213249951032e+00 6 2 0
246 444 1 4.1499999999999998e-01 3.3631963547230157e+00 2.7680905811185642e+01 7.0384574229613843e+00 6 2 0
245 444 1 4.1499999999999998e-01 3.5184511862923702e+00 2.6225773230401511e+01 6.6506684312895921e+00 6 2 0
28 444 2 -8.2999999999999996e-01 3.0148741304007558e+00 2.8060862375930046e+01 9.9914885809096265e+00 1 0 0
30 444 1 4.1499999999999998e-01 3.8663049252183854e+00 2.7827664456531881e+01 1.0361511668340681e+01 1 0 0
1232 444 1 4.1499999999999998e-01 2.1022205282077113e+00 2.5843037280958146e+01 1.9855720478634836e+01 2 -7 0
1416 444 1 4.1499999999999998e-01 2.7646121679035760e+00 2.7118764514500302e+01 1.7696382741989854e+01 1 1 0
1414 444 2 -8.2999999999999996e-01 3.2365749559837451e+00 2.6384935874436554e+01 1.8090055815783955e+01 1 1 0
368 444 1 4.1499999999999998e-01 2.6950517024498333e+00 2.5313629918256719e+01 1.6911919270034563e+01 -3 1 0
1415 444 1 4.1499999999999998e-01 3.8967738536835128e+00 2.6795905895618844e+01 1.8648153411638141e+01 1 1 0
367 444 2 -8.2999999999999996e-01 2.2962950965050317e+00 2.4780152533632922e+01 1.6224440602736408e+01 -3 1 0
3186 444 4 0.0000000000000000e+00 3.4729999999999999e+00 3.1549700000000001e+01 0.0000000000000000e+00 0 0 0
3187 444 4 0.0000000000000000e+00 3.4625400000000002e+00 3.1547650000000001e+01 3.6002299999999998e+00 0 0 0
3190 444 4 0.0000000000000000e+00 3.4729999999999999e+00 2.9732749999999999e+01 1.8169999999999999e+00 0 0 0
2051 444 1 4.1499999999999998e-01 2.6125266693495122e+00 2.9378538942506911e+01 6.4623619183074714e+00 0 -1 0
29 444 1 4.1499999999999998e-01 3.1617251237442123e+00 2.8905005423757302e+01 9.5647687052329609e+00 1 0 0
2898 444 1 4.1499999999999998e-01 3.4978458640833496e+00 3.1219864946346622e+01 1.0472074991519676e+01 -4 3 0
2896 444 2 -8.2999999999999996e-01 3.3940210158998654e+00 3.0665353156637003e+01 9.6987904777141836e+00 -4 3 0
2897 444 1 4.1499999999999998e-01 2.4483692840400404e+00 3.0628313161276413e+01 9.5552540797195746e+00 -4 3 0
790 444 2 -8.2999999999999996e-01 4.0397416356986868e+00 3.0667148022000326e+01 1.4248251384154852e+01 0 -1 0
2511 444 1 4.1499999999999998e-01 2.7405333464052761e+00 2.9492724399243730e+01 1.4731015431310892e+01 0 3 0
987 444 1 4.1499999999999998e-01 3.2589414415915035e+00 3.0320767238411037e+01 1.9727127433710692e+01 3 -2 0
2065 444 2 -8.2999999999999996e-01 2.0665650240480700e+00 3.1483785752058520e+01 1.9208262068695124e+01 -1 -2 0
3042 444 4 0.0000000000000000e+00 5.2898399999999999e+00 6.6205000000000003e-01 0.0000000000000000e+00 0 0 0
3043 444 4 0.0000000000000000e+00 5.2610400000000004e+00 6.4537999999999995e-01 3.6028300000000000e+00 0 0 0