LAMMPS data file via write_data, version 11 Aug 2017, timestep = 1000000

3549 atoms
11 atom types
2024 bonds
5 bond types
1018 angles
5 angle types
12 dihedrals
4 dihedral types
9 impropers
1 improper types

0.0000000000000000e+00 3.2704500000000003e+01 xlo xhi
0.0000000000000000e+00 3.2704500000000003e+01 ylo yhi
0.0000000000000000e+00 8.0000000000000000e+01 zlo zhi

Masses

1 1.0079
2 15.9994
3 39.0983
4 63.546
5 15.9994
6 12.011
7 12.011
8 15.9994
9 15.9994
10 15.9994
11 1.0079

Bond Coeffs # harmonic

1 450 0.9572
2 570 1.229
3 450 1.364
4 570 1.229
5 553 0.945

Angle Coeffs # harmonic

1 100 123.32
2 85 124
3 55 104.52
4 35 113
5 100 123.32

Dihedral Coeffs # charmm

1 0.922 1 180 0
2 3.741 2 0 0
3 0.922 1 0 0
4 3.741 2 180 0

Improper Coeffs # umbrella

1 21 0

Atoms # full

3037 444 4 0.0000000000000000e+00 1.6850600000000000e+00 6.7144000000000004e-01 3.5968900000000001e+00 0 0 0
3039 444 4 0.0000000000000000e+00 1.6560500000000000e+00 2.4790000000000001e+00 1.8169999999999999e+00 0 0 0
3048 444 4 0.0000000000000000e+00 1.6560500000000000e+00 6.6205000000000003e-01 0.0000000000000000e+00 0 0 0
387 444 1 4.1499999999999998e-01 9.8620010652303680e-01 1.5562993923401249e+00 7.7384564323956422e+00 -1 -1 0
385 444 2 -8.2999999999999996e-01 1.2928374567827952e+00 1.6108987373941066e+00 6.8333463216188841e+00 -1 -1 0
2688 444 1 4.1499999999999998e-01 1.7104572095850737e-01 4.2945940366003160e-01 6.2422159178690801e+00 2 -4 0
386 444 1 4.1499999999999998e-01 8.4614104361042075e-01 2.3776447632516411e+00 6.4744665392837550e+00 -1 -1 0
2608 444 2 -8.2999999999999996e-01 5.1315646531816239e-01 1.7173691451480608e+00 1.2171729779324981e+01 5 2 0
822 444 1 4.1499999999999998e-01 1.4414640001420820e+00 8.6667509507653850e-01 1.3955796388392232e+01 -1 -1 0
1954 444 2 -8.2999999999999996e-01 6.9041437159013874e-01 4.0401139329670643e+00 9.6856802267674382e+00 -2 -3 0
1663 444 2 -8.2999999999999996e-01 1.2534047009053056e-01 1.3622973310078212e+00 9.2090595075560167e+00 2 2 0
820 444 2 -8.2999999999999996e-01 1.7295841196982309e+00 1.2226665862233130e+00 1.4796325286458735e+01 -1 -1 0
1956 444 1 4.1499999999999998e-01 5.3713797397483487e-01 3.0968549763952815e+00 9.7404608052274462e+00 -2 -3 0
2610 444 1 4.1499999999999998e-01 1.4291744342449624e+00 1.9843451260570906e+00 1.2095128100861638e+01 5 2 0
2609 444 1 4.1499999999999998e-01 1.8604382088170723e-02 2.5340077800802292e+00 1.2102794218425057e+01 5 2 0
1664 444 1 4.1499999999999998e-01 8.3197003038279149e-02 7.3230035433956631e-01 9.9284756911506058e+00 2 2 0
1846 444 2 -8.2999999999999996e-01 2.5347850006174244e-01 2.4335541417698030e+00 1.6881644451148514e+01 2 -2 0
2384 444 1 4.1499999999999998e-01 1.3453118176178689e+00 3.7522489609376906e+00 1.7608635707238928e+01 0 0 0
1848 444 1 4.1499999999999998e-01 7.7527123439464607e-01 2.1338044014040789e+00 1.6137255836228857e+01 2 -2 0
3054 444 4 0.0000000000000000e+00 1.6560500000000000e+00 4.2959500000000004e+00 0.0000000000000000e+00 0 0 0
3055 444 4 0.0000000000000000e+00 1.6771100000000001e+00 4.2769199999999996e+00 3.5749399999999998e+00 0 0 0
3057 444 4 0.0000000000000000e+00 1.6560500000000000e+00 6.1128000000000000e+00 1.8169999999999999e+00 0 0 0
3074 444 4 0.0000000000000000e+00 1.6560500000000000e+00 7.9297500000000003e+00 0.0000000000000000e+00 0 0 0
3075 444 4 0.0000000000000000e+00 1.6891600000000000e+00 7.9546299999999999e+00 3.5728399999999998e+00 0 0 0
1418 444 1 4.1499999999999998e-01 1.0402471384017451e+00 4.3339636870030986e+00 7.8806188565035411e+00 -3 2 0
1281 444 1 4.1499999999999998e-01 1.3430931605487861e+00 6.2452872306767508e+00 6.7953172157130322e+00 0 1 0
1280 444 1 4.1499999999999998e-01 1.6416594245031726e+00 7.2074404595880601e+00 7.9253681062786239e+00 0 1 0
1417 444 2 -8.2999999999999996e-01 1.0393576905635602e+00 4.3857043846789701e+00 6.9248180998459334e+00 -3 2 0
1279 444 2 -8.2999999999999996e-01 1.8145577177885446e+00 7.0536529857326746e+00 6.9965580426551757e+00 0 1 0
1419 444 1 4.1499999999999998e-01 1.4113889446138195e-01 4.1703998854125350e+00 6.6736611653632707e+00 -3 2 0
2074 444 2 -8.2999999999999996e-01 1.1414620248619365e+00 5.0747033947624738e+00 1.4612476295597276e+01 1 -5 0
2075 444 1 4.1499999999999998e-01 5.3282065692818392e-01 5.4269460130871643e+00 1.3963082057455084e+01 1 -5 0
2076 444 1 4.1499999999999998e-01 1.0353707619244163e+00 4.1254065421145993e+00 1.4550733376715572e+01 1 -5 0
2844 444 1 4.1499999999999998e-01 1.6599628888178339e+00 7.6411960117589377e+00 1.0383820645864471e+01 -4 4 0
2842 444 2 -8.2999999999999996e-01 1.2512455133927602e+00 7.6751141973975248e+00 9.5189323204774663e+00 -4 4 0
1955 444 1 4.1499999999999998e-01 1.6084065982243565e+00 4.1489017794491874e+00 9.9340499052462725e+00 -2 -3 0
2385 444 1 4.1499999999999998e-01 1.0210202401891595e+00 4.7940634856280484e+00 1.8658089448362492e+01 0 0 0
2383 444 2 -8.2999999999999996e-01 1.7193637945353621e+00 4.5013090212184599e+00 1.8072560922043284e+01 0 0 0
3077 444 4 0.0000000000000000e+00 1.6560500000000000e+00 9.7467000000000006e+00 1.8169999999999999e+00 0 0 0
3094 444 4 0.0000000000000000e+00 1.6850600000000000e+00 1.1572939999999999e+01 3.5968900000000001e+00 0 0 0
3105 444 4 0.0000000000000000e+00 1.6560500000000000e+00 1.1563549999999999e+01 0.0000000000000000e+00 0 0 0
480 444 1 4.1499999999999998e-01 9.0666289439780190e-01 1.0259799774210606e+01 6.2483689974279866e+00 0 5 0
479 444 1 4.1499999999999998e-01 9.6108890194083074e-01 8.7603338715893955e+00 6.4497036196517223e+00 0 5 0
478 444 2 -8.2999999999999996e-01 3.8171640018697034e-01 9.4644442362070968e+00 6.1585187068352534e+00 0 5 0
2452 444 2 -8.2999999999999996e-01 1.8595975940370044e+00 1.1726174523233032e+01 6.7575054199326887e+00 1 0 0
1868 444 1 4.1499999999999998e-01 1.4586411118674050e+00 1.2240658449238888e+01 1.2260679285051697e+01 0 -1 0
2843 444 1 4.1499999999999998e-01 5.7379789004286197e-01 8.3464996346668308e+00 9.5998001679230249e+00 -4 4 0
1867 444 2 -8.2999999999999996e-01 1.9692923061143162e+00 1.2166033301568877e+01 1.3066842310853916e+01 0 -1 0
2105 444 1 4.1499999999999998e-01 4.4689324414272752e-01 1.1723226477530691e+01 1.0427969403867992e+01 1 3 0
1707 444 1 4.1499999999999998e-01 2.0412679624249335e+00 1.0831427595237585e+01 1.7355159875929584e+01 -1 1 0
481 444 2 -8.2999999999999996e-01 7.6848579322648936e-02 1.1459371215286911e+01 1.8134550032727255e+01 -1 2 0
482 444 1 4.1499999999999998e-01 5.1157098504454757e-01 1.2213105307236715e+01 1.7735634837180154e+01 -1 2 0
3096 444 4 0.0000000000000000e+00 1.6560500000000000e+00 1.3380500000000000e+01 1.8169999999999999e+00 0 0 0
3111 444 4 0.0000000000000000e+00 1.6560500000000000e+00 1.5197450000000000e+01 0.0000000000000000e+00 0 0 0
3112 444 4 0.0000000000000000e+00 1.6771100000000001e+00 1.5178419999999999e+01 3.5749399999999998e+00 0 0 0
58 444 2 -8.2999999999999996e-01 1.7310308984704317e+00 1.5662792548885834e+01 7.5788401934086913e+00 0 2 0
2837 444 1 4.1499999999999998e-01 5.9869481965145488e-01 1.2927197038673684e+01 6.4408067408661838e+00 5 -4 0
2838 444 1 4.1499999999999998e-01 7.8036835587626807e-01 1.4404651028672481e+01 6.7165236968170365e+00 5 -4 0
2836 444 2 -8.2999999999999996e-01 1.3383256269618757e-01 1.3763700428791257e+01 6.4208791050489920e+00 5 -4 0
1774 444 2 -8.2999999999999996e-01 6.6681260727515762e-02 1.3628897072631814e+01 1.4223029491426646e+01 1 -3 0
2104 444 2 -8.2999999999999996e-01 3.9311384189580717e-01 1.2482900542980197e+01 1.1007827321476988e+01 1 3 0
1869 444 1 4.1499999999999998e-01 1.5111949433115965e+00 1.2725787983851427e+01 1.3693782068052570e+01 0 -1 0
1753 444 2 -8.2999999999999996e-01 1.7398774040031970e+00 1.5939902404787743e+01 1.2056732442450821e+01 0 -3 0
60 444 1 4.1499999999999998e-01 1.0308154434494141e+00 1.6096502656705322e+01 8.0665149218270944e+00 0 2 0
248 444 1 4.1499999999999998e-01 1.7752876883933928e+00 1.3776535292478520e+01 9.9442856796121273e+00 -3 1 0
1755 444 1 4.1499999999999998e-01 7.9770394955563806e-01 1.5826902830940446e+01 1.2182322743163963e+01 0 -3 0
1368 444 1 4.1499999999999998e-01 9.0730031269605360e-01 1.6225518694738550e+01 1.0241191775958267e+01 2 -1 0
2820 444 1 4.1499999999999998e-01 1.5073469305612155e-01 1.4962002313570887e+01 1.7967308004222414e+01 -4 -1 0
1576 444 2 -8.2999999999999996e-01 9.0012409090686896e-01 1.3527020183977978e+01 1.6849417463821773e+01 3 -2 0
1577 444 1 4.1499999999999998e-01 1.7359260407776764e+00 1.3954002410920403e+01 1.6661392655586855e+01 3 -2 0
1578 444 1 4.1499999999999998e-01 3.9939554819076195e-01 1.3611892849334412e+01 1.6038060762488477e+01 3 -2 0
2818 444 2 -8.2999999999999996e-01 1.5368844453200517e-01 1.5783726306252259e+01 1.8458219502786935e+01 -4 -1 0
2819 444 1 4.1499999999999998e-01 9.0483331933535072e-01 1.6266563873046962e+01 1.8113425467099752e+01 -4 -1 0
3114 444 4 0.0000000000000000e+00 1.6560500000000000e+00 1.7014299999999999e+01 1.8169999999999999e+00 0 0 0
3131 444 4 0.0000000000000000e+00 1.6560500000000000e+00 1.8831250000000001e+01 0.0000000000000000e+00 0 0 0
3132 444 4 0.0000000000000000e+00 1.6891600000000000e+00 1.8856130000000000e+01 3.5728399999999998e+00 0 0 0
430 444 2 -8.2999999999999996e-01 1.4121993276196394e+00 1.8968978697187211e+01 6.2848836840554680e+00 0 -3 0
432 444 1 4.1499999999999998e-01 7.9133519438713884e-01 1.8695290081119698e+01 6.9600537511986325e+00 0 -3 0
1366 444 2 -8.2999999999999996e-01 2.4558617157115503e-01 1.6571597924308882e+01 9.6423621644978272e+00 2 -1 0
2607 444 1 4.1499999999999998e-01 9.9604396932240724e-01 1.8730945344504221e+01 1.3576196485158466e+01 2 2 0
2605 444 2 -8.2999999999999996e-01 1.2084713796808426e+00 1.8889989823376450e+01 1.4495876759955468e+01 2 2 0
1367 444 1 4.1499999999999998e-01 9.1784420453450005e-02 1.7466311234336359e+01 9.9457866586144696e+00 2 -1 0
2606 444 1 4.1499999999999998e-01 8.9513355504051728e-01 1.9778622382657133e+01 1.4664353657233493e+01 2 2 0
1058 444 1 4.1499999999999998e-01 1.7404882663982663e-01 1.8535285923574435e+01 1.6560201030029855e+01 -2 2 0
31 444 2 -8.2999999999999996e-01 1.8397996124147673e+00 1.7520025749921224e+01 1.6864512771346835e+01 -1 2 0
2702 444 1 4.1499999999999998e-01 2.0210434117596878e+00 1.9569590955228424e+01 1.9886797632587289e+01 0 -2 0
33 444 1 4.1499999999999998e-01 2.0429379322515460e+00 1.6653079634295366e+01 1.6513270150461260e+01 -1 2 0
3134 444 4 0.0000000000000000e+00 1.6560500000000000e+00 2.0648199999999999e+01 1.8169999999999999e+00 0 0 0
3151 444 4 0.0000000000000000e+00 1.6850600000000000e+00 2.2474440000000001e+01 3.5968900000000001e+00 0 0 0
3153 444 4 0.0000000000000000e+00 1.6560500000000000e+00 2.4282000000000000e+01 1.8169999999999999e+00 0 0 0
3162 444 4 0.0000000000000000e+00 1.6560500000000000e+00 2.2465050000000002e+01 0.0000000000000000e+00 0 0 0
2998 444 2 -8.2999999999999996e-01 9.1913104551748825e-01 2.1639622982196780e+01 6.7146934927162842e+00 -1 0 0
1373 444 1 4.1499999999999998e-01 1.6563729597439227e+00 2.3191669487419777e+01 7.2148889312712914e+00 -3 0 0
1372 444 2 -8.2999999999999996e-01 1.9124548700740129e+00 2.4105916058703539e+01 7.3365743499386014e+00 -3 0 0
2999 444 1 4.1499999999999998e-01 9.3278390397424882e-01 2.0795960542966210e+01 6.2627205134229502e+00 -1 0 0
3000 444 1 4.1499999999999998e-01 1.2330433775581184e-02 2.1937001731065028e+01 6.6404587455408617e+00 -1 0 0
374 444 1 4.1499999999999998e-01 1.7169976874818167e+00 2.3074364317407280e+01 1.3427331721330621e+01 2 1 0
373 444 2 -8.2999999999999996e-01 1.7051402786654282e+00 2.2459951365587138e+01 1.4161217298964448e+01 2 1 0
375 444 1 4.1499999999999998e-01 1.0412028702078873e+00 2.2809082946688225e+01 1.4755797993350113e+01 2 1 0
1700 444 1 4.1499999999999998e-01 1.5635018177612845e+00 2.1588103929682671e+01 9.7904716800179248e+00 -1 1 0
1699 444 2 -8.2999999999999996e-01 6.7090615830562572e-01 2.1591062704907632e+01 9.4447895673413012e+00 -1 1 0
1701 444 1 4.1499999999999998e-01 7.7705833662270740e-01 2.1754031176808301e+01 8.5075570110601930e+00 -1 1 0
814 444 2 -8.2999999999999996e-01 1.8040407635847733e+00 2.4434145076131635e+01 1.2366965809346278e+01 2 0 0
1892 444 1 4.1499999999999998e-01 1.9866511535760809e+00 2.2793466946671387e+01 1.8121431183322553e+01 2 -5 0
1893 444 1 4.1499999999999998e-01 6.8384649280572962e-01 2.2246135939283445e+01 1.7578269338530227e+01 2 -5 0
1891 444 2 -8.2999999999999996e-01 1.5279346139644465e+00 2.1973591415677380e+01 1.7938084556862115e+01 2 -5 0
3168 444 4 0.0000000000000000e+00 1.6560500000000000e+00 2.6098949999999999e+01 0.0000000000000000e+00 0 0 0
3169 444 4 0.0000000000000000e+00 1.6771100000000001e+00 2.6079920000000001e+01 3.5749399999999998e+00 0 0 0
3171 444 4 0.0000000000000000e+00 1.6560500000000000e+00 2.7915800000000001e+01 1.8169999999999999e+00 0 0 0
553 444 2 -8.2999999999999996e-01 1.0574333250306103e+00 2.6556460757945398e+01 6.9972408241608726e+00 -1 1 0
555 444 1 4.1499999999999998e-01 1.2779133763105714e+00 2.5640043424390765e+01 7.1639734789217639e+00 -1 1 0
2169 444 1 4.1499999999999998e-01 2.0334549653988652e+00 2.7934771589581512e+01 6.1398414858059898e+00 0 2 0
554 444 1 4.1499999999999998e-01 1.7935806879410221e-01 2.6526751476145819e+01 6.6173288701945276e+00 -1 1 0
2927 444 1 4.1499999999999998e-01 1.7536083399149982e+00 2.6679077198900366e+01 9.7541999838082685e+00 6 1 0
2194 444 2 -8.2999999999999996e-01 6.9076577969193431e-01 2.4878060718170513e+01 9.5864485437454992e+00 1 -4 0
816 444 1 4.1499999999999998e-01 1.8581311291956832e+00 2.5282788018035724e+01 1.2806410109929095e+01 2 0 0
2928 444 1 4.1499999999999998e-01 1.9991991265238644e+00 2.7169610269388347e+01 8.3431868736013897e+00 6 1 0
660 444 1 4.1499999999999998e-01 1.4050188241618007e+00 2.6697446150856425e+01 1.4320315074636889e+01 -2 -1 0
658 444 2 -8.2999999999999996e-01 1.8350368406305355e+00 2.6821032905936526e+01 1.3474121560644981e+01 -2 -1 0
659 444 1 4.1499999999999998e-01 1.4038054493970611e+00 2.7587085232598966e+01 1.3095392139596528e+01 -2 -1 0
815 444 1 4.1499999999999998e-01 1.3910061205230562e+00 2.4625773570428329e+01 1.1524996174638035e+01 2 0 0
2196 444 1 4.1499999999999998e-01 1.0562998749044632e+00 2.4767189375496709e+01 8.7087669176664626e+00 1 -4 0
177 444 1 4.1499999999999998e-01 1.4508493029020728e-01 2.7481410840752510e+01 1.9625134179048388e+01 1 -1 0
2786 444 1 4.1499999999999998e-01 1.4875230579939436e+00 2.7054731458384218e+01 1.7370942528631709e+01 -5 0 0
2787 444 1 4.1499999999999998e-01 7.9824864411048990e-01 2.6923290505029691e+01 1.6029480765912346e+01 -5 0 0
2785 444 2 -8.2999999999999996e-01 1.6096728492193670e+00 2.7226001137259630e+01 1.6437144402019165e+01 -5 0 0
176 444 1 4.1499999999999998e-01 4.2338460640014863e-01 2.6032844474664874e+01 1.9284399551887958e+01 1 -1 0
175 444 2 -8.2999999999999996e-01 6.6708378038339355e-01 2.6927040287357372e+01 1.9045114604403476e+01 1 -1 0
3188 444 4 0.0000000000000000e+00 1.6560500000000000e+00 2.9732749999999999e+01 0.0000000000000000e+00 0 0 0
3189 444 4 0.0000000000000000e+00 1.6891600000000000e+00 2.9757629999999999e+01 3.5728399999999998e+00 0 0 0
3191 444 4 0.0000000000000000e+00 1.6560500000000000e+00 3.1549700000000001e+01 1.8169999999999999e+00 0 0 0
2687 444 1 4.1499999999999998e-01 1.4082503992096845e-01 3.1753323797036423e+01 6.8625605899186271e+00 2 -5 0
2623 444 2 -8.2999999999999996e-01 1.2052275506394086e+00 3.0583931987581437e+01 7.8653837291037858e+00 4 -5 0
2168 444 1 4.1499999999999998e-01 2.0203003368645960e+00 2.9384896326026322e+01 6.5744224774691604e+00 0 2 0
2624 444 1 4.1499999999999998e-01 4.6060826066645405e-01 3.0207985184861307e+01 8.3348923794880800e+00 4 -5 0
24 444 1 4.1499999999999998e-01 1.9777645335146505e+00 3.0630251278857983e+01 1.1276156021880617e+01 3 -4 0
599 444 1 4.1499999999999998e-01 1.8968141277858577e+00 2.9720071618908204e+01 1.4958785681697721e+01 4 2 0
23 444 1 4.1499999999999998e-01 1.1854215278417830e+00 3.1920240724818036e+01 1.1280031636509486e+01 3 -4 0
520 444 2 -8.2999999999999996e-01 1.3881280897991097e-01 2.9691170668823215e+01 1.0807935909021229e+01 -1 -2 0
598 444 2 -8.2999999999999996e-01 1.2234323222550656e+00 2.9862900709640414e+01 1.5623909057908749e+01 4 2 0
2625 444 1 4.1499999999999998e-01 1.9434024491280180e+00 3.0483515495711028e+01 8.4664213747490855e+00 4 -5 0
22 444 2 -8.2999999999999996e-01 2.0360702240171791e+00 3.1553666171834539e+01 1.1521387217347097e+01 3 -4 0
1843 444 2 -8.2999999999999996e-01 1.2249746578277934e+00 3.1594441290631909e+01 1.9411272866243628e+01 2 2 0
600 444 1 4.1499999999999998e-01 1.2665043790423767e+00 2.9084953613885730e+01 1.6179945210024613e+01 4 2 0
1845 444 1 4.1499999999999998e-01 6.3804840382207395e-01 3.0881772965294896e+01 1.9663965297549272e+01 2 2 0
3038 444 4 0.0000000000000000e+00 3.4729999999999999e+00 6.6205000000000003e-01 1.8169999999999999e+00 0 0 0
3062 444 4 0.0000000000000000e+00 3.4841799999999998e+00 2.4672399999999999e+00 3.5974400000000002e+00 0 0 0
3063 444 4 0.0000000000000000e+00 3.4729999999999999e+00 2.4790000000000001e+00 0.0000000000000000e+00 0 0 0
234 444 1 4.1499999999999998e-01 3.1445246344471189e+00 2.5509068707462229e-01 6.9093365524626824e+00 6 -2 0
232 444 2 -8.2999999999999996e-01 3.9466006500632291e+00 1.4453740454367484e-01 7.4199088157939865e+00 6 -2 0
2850 444 1 4.1499999999999998e-01 3.7772499394061470e+00 3.7480245971337802e+00 7.6773953861407529e+00 2 -1 0
2849 444 1 4.1499999999999998e-01 3.2945013660601483e+00 3.9468792240937511e+00 6.2563725574226208e+00 2 -1 0
821 444 1 4.1499999999999998e-01 2.6566175113919459e+00 9.9042300196823974e-01 1.4850214444426131e+01 -1 -1 0
233 444 1 4.1499999999999998e-01 3.6860896647727275e+00 3.3676323381800549e-01 8.3206948404392644e+00 6 -2 0
190 444 2 -8.2999999999999996e-01 3.2795027951984523e+00 2.9227243751998819e+00 1.2474436696065515e+01 2 2 0
1558 444 2 -8.2999999999999996e-01 4.0183412488162320e+00 1.6927786155528432e-01 1.0225695833114443e+01 0 3 0
192 444 1 4.1499999999999998e-01 3.7957990441478811e+00 2.3938209224670435e+00 1.3082656577594289e+01 2 2 0
191 444 1 4.1499999999999998e-01 3.9091320342275679e+00 3.5362823725923529e+00 1.2095826641934817e+01 2 2 0
3052 444 4 0.0000000000000000e+00 3.4729999999999999e+00 6.1128000000000000e+00 0.0000000000000000e+00 0 0 0
3053 444 4 0.0000000000000000e+00 3.4686400000000002e+00 6.1124099999999997e+00 3.5883900000000000e+00 0 0 0
3056 444 4 0.0000000000000000e+00 3.4729999999999999e+00 4.2959500000000004e+00 1.8169999999999999e+00 0 0 0
3076 444 4 0.0000000000000000e+00 3.4729999999999999e+00 7.9297500000000003e+00 1.8169999999999999e+00 0 0 0
266 444 1 4.1499999999999998e-01 3.5245159159130530e+00 7.6058431785707086e+00 6.7808246946683521e+00 3 1 0
2101 444 2 -8.2999999999999996e-01 3.1684147437887997e+00 4.6806657891576071e+00 1.0059197129354457e+01 1 6 0
2103 444 1 4.1499999999999998e-01 3.3768793907107741e+00 5.5201721193793318e+00 1.0469079402896503e+01 1 6 0
62 444 1 4.1499999999999998e-01 3.1076053697738342e+00 6.4204535709218069e+00 1.3138185661776991e+01 1 0 0
61 444 2 -8.2999999999999996e-01 3.0505113223577820e+00 6.1124948797805372e+00 1.2233678184520127e+01 1 0 0
2102 444 1 4.1499999999999998e-01 4.0017579128284702e+00 4.2101940725094051e+00 1.0038522052462923e+01 1 6 0
2884 444 2 -8.2999999999999996e-01 3.9279586579149957e+00 7.3155347932731631e+00 1.4556515557558177e+01 1 0 0
63 444 1 4.1499999999999998e-01 2.4333978374019893e+00 5.3815658355791216e+00 1.2267523919894522e+01 1 0 0
2886 444 1 4.1499999999999998e-01 3.3548102896779572e+00 8.0817722889798880e+00 1.4531740079076034e+01 1 0 0
449 444 1 4.1499999999999998e-01 3.5627256812717607e+00 6.3653921519403154e+00 1.6290168447924465e+01 1 -5 0
2640 444 1 4.1499999999999998e-01 3.8941406337902702e+00 8.1114848110739199e+00 1.8043131144985221e+01 0 4 0
448 444 2 -8.2999999999999996e-01 3.6073457605087031e+00 6.3555926151966800e+00 1.7246277717482428e+01 1 -5 0
450 444 1 4.1499999999999998e-01 3.1964684963936683e+00 5.5282881262459460e+00 1.7497234350572828e+01 1 -5 0
3072 444 4 0.0000000000000000e+00 3.4729999999999999e+00 9.7467000000000006e+00 0.0000000000000000e+00 0 0 0
3073 444 4 0.0000000000000000e+00 3.4838499999999999e+00 9.7718200000000000e+00 3.5967799999999999e+00 0 0 0
3095 444 4 0.0000000000000000e+00 3.4729999999999999e+00 1.1563549999999999e+01 1.8169999999999999e+00 0 0 0
2453 444 1 4.1499999999999998e-01 2.3567216907930266e+00 1.1064817801579602e+01 7.2388647743826473e+00 1 0 0
1631 444 1 4.1499999999999998e-01 3.8540190908209362e+00 9.1980988943509132e+00 7.6704719422426360e+00 -3 2 0
2454 444 1 4.1499999999999998e-01 2.5207702318097018e+00 1.2210845415476895e+01 6.2633628161932116e+00 1 0 0
1630 444 2 -8.2999999999999996e-01 3.4172202734228354e+00 9.9521937608267805e+00 8.0664261663523895e+00 -3 2 0
1814 444 1 4.1499999999999998e-01 3.7692914492445260e+00 1.1900292443555045e+01 1.2819408058436352e+01 -2 1 0
17 444 2 -8.2999999999999996e-01 2.8492380200889045e+00 9.9276405530321146e+00 1.4319545845889193e+01 0 0 0
1632 444 1 4.1499999999999998e-01 3.2897222141890268e+00 9.7024210365578210e+00 8.9816255034164545e+00 -3 2 0
20 444 1 4.1499999999999998e-01 2.3563613229286910e+00 1.0512434784800757e+01 1.3743941465387401e+01 0 0 0
19 444 1 4.1499999999999998e-01 2.6276358986381991e+00 1.0218695127760149e+01 1.5204086245774169e+01 0 0 0
1276 444 2 -8.2999999999999996e-01 3.9784701763241261e+00 9.5950073394318682e+00 1.0593456344315330e+01 -5 -2 0
1706 444 1 4.1499999999999998e-01 3.3103924261633981e+00 1.0016837649469201e+01 1.7222259577881111e+01 -1 1 0
1705 444 2 -8.2999999999999996e-01 2.8055820712131103e+00 1.0707248595639818e+01 1.6792455860434817e+01 -1 1 0
3113 444 4 0.0000000000000000e+00 3.4729999999999999e+00 1.5197450000000000e+01 1.8169999999999999e+00 0 0 0
3119 444 4 0.0000000000000000e+00 3.4841799999999998e+00 1.3368740000000001e+01 3.5974400000000002e+00 0 0 0
3120 444 4 0.0000000000000000e+00 3.4729999999999999e+00 1.3380500000000000e+01 0.0000000000000000e+00 0 0 0
3013 444 2 -8.2999999999999996e-01 3.9547424688655317e+00 1.3627666616508083e+01 6.3569503016877444e+00 3 0 0
59 444 1 4.1499999999999998e-01 2.0880815876898335e+00 1.6346688413543145e+01 7.0122421442615952e+00 0 2 0
1261 444 2 -8.2999999999999996e-01 2.9370894612831107e+00 1.5119810340895034e+01 1.5976867331147643e+01 1 0 0
1262 444 1 4.1499999999999998e-01 3.3530191450489912e+00 1.5440952642748783e+01 1.5176803384996544e+01 1 0 0
249 444 1 4.1499999999999998e-01 2.1482449290661463e+00 1.4542863382154140e+01 8.6930704584687124e+00 -3 1 0
2987 444 1 4.1499999999999998e-01 4.0042542968800463e+00 1.5669470485896323e+01 1.2788286031852822e+01 1 5 0
1878 444 1 4.1499999999999998e-01 3.6775036245053521e+00 1.4254088600501825e+01 1.0607177439509847e+01 1 -5 0
247 444 2 -8.2999999999999996e-01 2.5012408861054509e+00 1.3932180435220946e+01 9.3401346913366883e+00 -3 1 0
2986 444 2 -8.2999999999999996e-01 3.9556377946766754e+00 1.5983089684772919e+01 1.3691343187474175e+01 1 5 0
1754 444 1 4.1499999999999998e-01 2.1015191831664244e+00 1.5942474874970003e+01 1.2942983346363139e+01 0 -3 0
1332 444 1 4.1499999999999998e-01 4.0682609396520126e+00 1.2996339952721577e+01 8.7517772344704010e+00 -4 1 0
1263 444 1 4.1499999999999998e-01 3.3969983033060878e+00 1.4304226178253638e+01 1.6175710332523430e+01 1 0 0
3109 444 4 0.0000000000000000e+00 3.4729999999999999e+00 1.7014299999999999e+01 0.0000000000000000e+00 0 0 0
3110 444 4 0.0000000000000000e+00 3.4686400000000002e+00 1.7013909999999999e+01 3.5883900000000000e+00 0 0 0
3133 444 4 0.0000000000000000e+00 3.4729999999999999e+00 1.8831250000000001e+01 1.8169999999999999e+00 0 0 0
431 444 1 4.1499999999999998e-01 2.2449367094425141e+00 1.9061187303160033e+01 6.7477866298580382e+00 0 -3 0
1306 444 2 -8.2999999999999996e-01 2.8303753866226478e+00 1.8882090041008269e+01 8.5380771550241317e+00 3 3 0
1308 444 1 4.1499999999999998e-01 3.2678746582301570e+00 1.8400946287307324e+01 9.2404500368320779e+00 3 3 0
803 444 1 4.1499999999999998e-01 3.0762309733837720e+00 1.7362015718534970e+01 1.1186997352347305e+01 3 3 0
1476 444 1 4.1499999999999998e-01 3.4865967794952533e+00 2.0208035048550602e+01 1.3074818105117783e+01 1 -1 0
1307 444 1 4.1499999999999998e-01 3.0637659217390989e+00 1.9797436289347427e+01 8.6926812778259901e+00 3 3 0
1474 444 2 -8.2999999999999996e-01 3.5283081570493722e+00 1.9255031637787855e+01 1.2995592626327435e+01 1 -1 0
1475 444 1 4.1499999999999998e-01 2.9564350069319891e+00 1.8931106679934164e+01 1.3691484833469689e+01 1 -1 0
802 444 2 -8.2999999999999996e-01 3.8269947277428393e+00 1.7808627054990183e+01 1.0795686631917087e+01 3 3 0
32 444 1 4.1499999999999998e-01 2.1113418714541381e+00 1.8127428880158700e+01 1.6176357004231356e+01 -1 2 0
1158 444 1 4.1499999999999998e-01 3.9509629634478349e+00 1.9020491522481599e+01 1.8744567379202866e+01 0 3 0
2701 444 2 -8.2999999999999996e-01 2.6363011750503977e+00 2.0254634264057398e+01 1.9625251776935816e+01 0 -2 0
1157 444 1 4.1499999999999998e-01 3.4856117315433077e+00 1.8094136443696787e+01 1.7641295061185456e+01 0 3 0
3129 444 4 0.0000000000000000e+00 3.4729999999999999e+00 2.0648199999999999e+01 0.0000000000000000e+00 0 0 0
3130 444 4 0.0000000000000000e+00 3.4838499999999999e+00 2.0673320000000000e+01 3.5967799999999999e+00 0 0 0
3152 444 4 0.0000000000000000e+00 3.4729999999999999e+00 2.2465050000000002e+01 1.8169999999999999e+00 0 0 0
3176 444 4 0.0000000000000000e+00 3.4841799999999998e+00 2.4270240000000001e+01 3.5974400000000002e+00 0 0 0
3177 444 4 0.0000000000000000e+00 3.4729999999999999e+00 2.4282000000000000e+01 0.0000000000000000e+00 0 0 0
1229 444 1 4.1499999999999998e-01 2.5518612877847651e+00 2.1154509422821629e+01 6.4446745183460008e+00 2 0 0
1374 444 1 4.1499999999999998e-01 2.7814036896288430e+00 2.4166602581079228e+01 6.9397401794687292e+00 -3 0 0
1228 444 2 -8.2999999999999996e-01 3.4613812559190342e+00 2.0908559638397204e+01 6.6135365208743835e+00 2 0 0
1230 444 1 4.1499999999999998e-01 3.8926514768680440e+00 2.1730325402501975e+01 6.8479275303938136e+00 2 0 0
2243 444 1 4.1499999999999998e-01 3.3008982614870792e+00 2.3736227586386452e+01 1.2212554922686991e+01 1 3 0
941 444 1 4.1499999999999998e-01 4.0252174097407591e+00 2.1960241738779231e+01 9.1390728044064655e+00 1 1 0
1689 444 1 4.1499999999999998e-01 3.3424878687948416e+00 2.1888054241155341e+01 1.5166444833899765e+01 6 -1 0
1687 444 2 -8.2999999999999996e-01 3.6709656591228952e+00 2.1525265628672745e+01 1.5989074656156262e+01 6 -1 0
942 444 1 4.1499999999999998e-01 3.4554214264224323e+00 2.2276864015929569e+01 1.0505446947096413e+01 1 1 0
940 444 2 -8.2999999999999996e-01 3.3669483138137459e+00 2.1670029654161940e+01 9.7704928106786078e+00 1 1 0
987 444 1 4.1499999999999998e-01 4.0745175320504465e+00 2.3319773273331673e+01 1.8292939715074013e+01 1 2 0
2703 444 1 4.1499999999999998e-01 2.0909109307197276e+00 2.0918968314478260e+01 1.9204012470098160e+01 0 -2 0
1688 444 1 4.1499999999999998e-01 2.9538861698990964e+00 2.1651684103985403e+01 1.6610402476803532e+01 6 -1 0
985 444 2 -8.2999999999999996e-01 3.3455864299788822e+00 2.3893433653659830e+01 1.8529170777824401e+01 1 2 0
3166 444 4 0.0000000000000000e+00 3.4729999999999999e+00 2.7915800000000001e+01 0.0000000000000000e+00 0 0 0
3167 444 4 0.0000000000000000e+00 3.4686400000000002e+00 2.7915410000000001e+01 3.5883900000000000e+00 0 0 0
3170 444 4 0.0000000000000000e+00 3.4729999999999999e+00 2.6098949999999999e+01 1.8169999999999999e+00 0 0 0
2675 444 1 4.1499999999999998e-01 3.5530829355479123e+00 2.6709728676755645e+01 6.8760722370608764e+00 0 -2 0
2926 444 2 -8.2999999999999996e-01 2.2708099695382025e+00 2.7307665762368643e+01 9.2506014320586427e+00 6 1 0
1649 444 1 4.1499999999999998e-01 3.8602558525412136e+00 2.6551136712373648e+01 1.3678601816732115e+01 -3 0 0
632 444 1 4.1499999999999998e-01 4.0466725564152020e+00 2.5818718290087542e+01 1.5706308586040826e+01 3 -2 0
631 444 2 -8.2999999999999996e-01 3.8014337447070088e+00 2.5704091726186977e+01 1.6624431970615337e+01 3 -2 0
633 444 1 4.1499999999999998e-01 2.9221179699158060e+00 2.6077190772339740e+01 1.6686341334270221e+01 3 -2 0
986 444 1 4.1499999999999998e-01 3.4982493973898179e+00 2.4694352359214161e+01 1.8027717728866758e+01 1 2 0
3186 444 4 0.0000000000000000e+00 3.4729999999999999e+00 3.1549700000000001e+01 0.0000000000000000e+00 0 0 0
3187 444 4 0.0000000000000000e+00 3.4838499999999999e+00 3.1574819999999999e+01 3.5967799999999999e+00 0 0 0
3190 444 4 0.0000000000000000e+00 3.4729999999999999e+00 2.9732749999999999e+01 1.8169999999999999e+00 0 0 0
2167 444 2 -8.2999999999999996e-01 2.5232938802597205e+00 2.8753286784593204e+01 6.0603211639020191e+00 0 2 0
615 444 1 4.1499999999999998e-01 3.8575094906051666e+00 3.0000684425878809e+01 6.7187647860540487e+00 2 -1 0
2089 444 2 -8.2999999999999996e-01 3.0757112795655992e+00 2.9791263393237045e+01 9.5441270749488343e+00 0 -2 0
1465 444 2 -8.2999999999999996e-01 3.2835326234789259e+00 3.0369795226805643e+01 1.3691473874654049e+01 -3 1 0
1466 444 1 4.1499999999999998e-01 3.0691571975904748e+00 3.1020574123487634e+01 1.3023071026926935e+01 -3 1 0
1560 444 1 4.1499999999999998e-01 3.3598078943691378e+00 3.2243871175682614e+01 1.0518585131022594e+01 0 2 0
1467 444 1 4.1499999999999998e-01 3.7189506423629588e+00 2.9666105866849946e+01 1.3210366277329030e+01 -3 1 0
2091 444 1 4.1499999999999998e-01 2.7944794549379539e+00 2.8876327217581277e+01 9.5384351103804104e+00 0 -2 0
2090 444 1 4.1499999999999998e-01 3.7584262881592334e+00 2.9828316839042703e+01 1.0214021928825245e+01 0 -2 0
577 444 2 -8.2999999999999996e-01 3.7160741373856530e+00 3.2377628171566961e+01 1.8333131852199955e+01 1 -2 0
579 444 1 4.1499999999999998e-01 4.0772390110926020e+00 3.2249952930549156e+01 1.9210338201760909e+01 1 -2 0
578 444 1 4.1499999999999998e-01 2.8133044523614021e+00 3.2066045816564774e+01 1.8397600095168983e+01 1 -2 0
3042 444 4 0.0000000000000000e+00 5.2898399999999999e+00 6.6205000000000003e-01 0.0000000000000000e+00 0 0 0