LAMMPS data file via write_data, version 11 Aug 2017, timestep = 1000000

3558 atoms
11 atom types
2024 bonds
5 bond types
1018 angles
5 angle types
12 dihedrals
4 dihedral types
9 impropers
1 improper types

0.0000000000000000e+00 3.2704500000000003e+01 xlo xhi
0.0000000000000000e+00 3.2704500000000003e+01 ylo yhi
0.0000000000000000e+00 8.0000000000000000e+01 zlo zhi

Masses

1 1.0079
2 15.9994
3 39.0983
4 63.546
5 15.9994
6 12.011
7 12.011
8 15.9994
9 15.9994
10 15.9994
11 1.0079

Bond Coeffs # harmonic

1 450 0.9572
2 570 1.229
3 450 1.364
4 570 1.229
5 553 0.945

Angle Coeffs # harmonic

1 100 123.32
2 85 124
3 55 104.52
4 35 113
5 100 123.32

Dihedral Coeffs # charmm

1 0.922 1 180 0
2 3.741 2 0 0
3 0.922 1 0 0
4 3.741 2 180 0

Improper Coeffs # umbrella

1 21 0

Atoms # full

3049 444 4 0.0000000000000000e+00 1.6610100000000001e+00 6.6669999999999996e-01 3.5796100000000002e+00 0 0 0
3051 444 4 0.0000000000000000e+00 1.6560500000000000e+00 2.4790000000000001e+00 1.8169999999999999e+00 0 0 0
3060 444 4 0.0000000000000000e+00 1.6560500000000000e+00 6.6205000000000003e-01 0.0000000000000000e+00 0 0 0
2261 444 1 4.1499999999999998e-01 1.2975141335326756e+00 2.8375323094672660e+00 7.2003445946394971e+00 2 4 0
2260 444 2 -8.2999999999999996e-01 1.8252566516873845e+00 2.0389748707609900e+00 7.1953007647761682e+00 2 4 0
488 444 1 4.1499999999999998e-01 1.6961168880368929e+00 1.5286564317826337e+00 8.8639017247045704e+00 -2 -2 0
2800 444 2 -8.2999999999999996e-01 1.1033749724764204e+00 8.7751982553166208e-01 1.5888256186836003e+01 -4 1 0
1924 444 2 -8.2999999999999996e-01 7.2470883482730453e-01 2.6745485204691022e+00 1.2223123395441730e+01 0 2 0
1925 444 1 4.1499999999999998e-01 9.1762858923013224e-01 2.4347875450056171e+00 1.1316741321884097e+01 0 2 0
487 444 2 -8.2999999999999996e-01 1.9270786206106689e+00 1.6016429208310692e+00 9.7899478914915541e+00 -2 -2 0
1926 444 1 4.1499999999999998e-01 1.4765248140601097e+00 2.3540072171979309e+00 1.2721378141336904e+01 0 2 0
2801 444 1 4.1499999999999998e-01 1.7430881337076354e+00 5.8768069542586177e-01 1.6538634800930975e+01 -4 1 0
2802 444 1 4.1499999999999998e-01 2.5518692556044553e-01 6.4291975595087769e-01 1.6264783908946889e+01 -4 1 0
2104 444 2 -8.2999999999999996e-01 1.4950328827886581e+00 3.0458026993926435e+00 1.9809258290686536e+01 0 -3 0
3066 444 4 0.0000000000000000e+00 1.6560500000000000e+00 4.2959500000000004e+00 0.0000000000000000e+00 0 0 0
3067 444 4 0.0000000000000000e+00 1.6506900000000000e+00 4.3012300000000003e+00 3.5749000000000000e+00 0 0 0
3069 444 4 0.0000000000000000e+00 1.6560500000000000e+00 6.1128000000000000e+00 1.8169999999999999e+00 0 0 0
3086 444 4 0.0000000000000000e+00 1.6560500000000000e+00 7.9297500000000003e+00 0.0000000000000000e+00 0 0 0
3087 444 4 0.0000000000000000e+00 1.6814000000000000e+00 7.9425200000000000e+00 3.5699100000000001e+00 0 0 0
2002 444 2 -8.2999999999999996e-01 2.5965739658914977e-01 4.1404440387405685e+00 6.8603976224026688e+00 2 2 0
450 444 1 4.1499999999999998e-01 1.2038179167791987e+00 7.8253663633230239e+00 7.5225824552607357e+00 2 0 0
2003 444 1 4.1499999999999998e-01 1.0322226901064067e+00 4.5454372638429943e+00 7.2545486751499109e+00 2 2 0
1133 444 1 4.1499999999999998e-01 1.7412579840504230e+00 7.0419016193481108e+00 1.3678454386283438e+01 0 3 0
1132 444 2 -8.2999999999999996e-01 1.3021495580330684e+00 7.8919448484045152e+00 1.3649447497917844e+01 0 3 0
2470 444 2 -8.2999999999999996e-01 1.3882122565810369e+00 5.4031774712851535e+00 1.2028640464654185e+01 6 -1 0
2471 444 1 4.1499999999999998e-01 1.3001564501587364e+00 4.4533035222389028e+00 1.1949786891804793e+01 6 -1 0
2472 444 1 4.1499999999999998e-01 6.1412094098338255e-01 5.7533752221387973e+00 1.1587759358164895e+01 6 -1 0
449 444 1 4.1499999999999998e-01 2.1088072001517369e-01 8.0468366283178270e+00 8.6437076755142908e+00 2 0 0
2098 444 2 -8.2999999999999996e-01 4.2573635807324284e-01 4.8206130608325113e+00 1.8147225688460324e+01 1 1 0
2099 444 1 4.1499999999999998e-01 8.0009574246616766e-01 4.2638425169919838e+00 1.8829937176796623e+01 1 1 0
1411 444 2 -8.2999999999999996e-01 1.7549364105996874e+00 8.1280398350397167e+00 1.9274159696244887e+01 4 1 0
3089 444 4 0.0000000000000000e+00 1.6560500000000000e+00 9.7467000000000006e+00 1.8169999999999999e+00 0 0 0
3107 444 4 0.0000000000000000e+00 1.6610100000000001e+00 1.1568199999999999e+01 3.5796100000000002e+00 0 0 0
3118 444 4 0.0000000000000000e+00 1.6560500000000000e+00 1.1563549999999999e+01 0.0000000000000000e+00 0 0 0
182 444 1 4.1499999999999998e-01 2.0467727221421647e-01 9.8189574192515714e+00 7.2868490650203741e+00 0 -1 0
2319 444 1 4.1499999999999998e-01 8.8071553601235986e-01 1.1895212414519218e+01 6.5891144944809303e+00 5 -1 0
181 444 2 -8.2999999999999996e-01 4.2321340952184983e-02 1.0430033441392141e+01 6.5681979716825065e+00 0 -1 0
1137 444 1 4.1499999999999998e-01 6.7714720788054419e-02 8.9947867521800298e+00 1.3031957205412647e+01 0 3 0
465 444 1 4.1499999999999998e-01 1.4795905162665766e+00 1.0111878640424770e+01 8.9640414499907308e+00 -1 0 0
1134 444 1 4.1499999999999998e-01 1.5106658311587238e+00 8.2985985139121023e+00 1.4490509531896766e+01 0 3 0
464 444 1 4.1499999999999998e-01 1.6753916480191342e+00 1.1417955853516997e+01 8.2239604955420571e+00 -1 0 0
463 444 2 -8.2999999999999996e-01 1.7188852424246222e+00 1.1029026049955549e+01 9.0975013561118967e+00 -1 0 0
435 444 1 4.1499999999999998e-01 5.5654598703157332e-01 1.2059809325364849e+01 9.9588533677198043e+00 2 3 0
448 444 2 -8.2999999999999996e-01 9.6657801607609228e-01 8.4454389774728984e+00 8.2121178705769911e+00 2 0 0
401 444 1 4.1499999999999998e-01 1.0943268830101629e+00 9.3337257407507810e+00 1.6353943688276480e+01 4 -2 0
400 444 2 -8.2999999999999996e-01 1.9635298798810332e+00 9.0930223002667283e+00 1.6033348884289964e+01 4 -2 0
3109 444 4 0.0000000000000000e+00 1.6560500000000000e+00 1.3380500000000000e+01 1.8169999999999999e+00 0 0 0
3124 444 4 0.0000000000000000e+00 1.6560500000000000e+00 1.5197450000000000e+01 0.0000000000000000e+00 0 0 0
3125 444 4 0.0000000000000000e+00 1.6506900000000000e+00 1.5202730000000001e+01 3.5749000000000000e+00 0 0 0
2926 444 2 -8.2999999999999996e-01 1.7647357410460052e+00 1.5487003860279215e+01 7.1817343537174363e+00 0 0 0
2318 444 1 4.1499999999999998e-01 6.0787800311584439e-01 1.3382713738626258e+01 6.5198763687940628e+00 5 -1 0
2317 444 2 -8.2999999999999996e-01 1.3099169018132120e+00 1.2747702447736778e+01 6.6617691871218554e+00 5 -1 0
2927 444 1 4.1499999999999998e-01 8.3909017973854505e-01 1.5250479256330809e+01 7.2406296502127825e+00 0 0 0
2061 444 1 4.1499999999999998e-01 6.4777290156471978e-01 1.3993262908052492e+01 1.0911447965396842e+01 1 2 0
2026 444 2 -8.2999999999999996e-01 1.5191068347276866e+00 1.3345458089167289e+01 1.5037021736554223e+01 1 3 0
2059 444 2 -8.2999999999999996e-01 1.5312129435045221e+00 1.4194496950248253e+01 1.1220107708787889e+01 1 2 0
2027 444 1 4.1499999999999998e-01 9.2897550536083306e-01 1.3021034025567056e+01 1.4356782206622965e+01 1 3 0
2060 444 1 4.1499999999999998e-01 1.8700008133029851e+00 1.3358298758606891e+01 1.1539838786882862e+01 1 2 0
2285 444 1 4.1499999999999998e-01 1.7827905976750746e+00 1.5853405612587000e+01 1.6378668671343295e+01 0 -2 0
1610 444 1 4.1499999999999998e-01 9.0814898415829870e-01 1.5640631664265259e+01 1.9535537396319665e+01 -1 1 0
1164 444 1 4.1499999999999998e-01 5.1052518373338886e-02 1.3457962075320072e+01 1.6214228433709778e+01 6 -5 0
1609 444 2 -8.2999999999999996e-01 1.5742315250291683e+00 1.6259585583340787e+01 1.9834640787457641e+01 -1 1 0
3127 444 4 0.0000000000000000e+00 1.6560500000000000e+00 1.7014299999999999e+01 1.8169999999999999e+00 0 0 0
3144 444 4 0.0000000000000000e+00 1.6560500000000000e+00 1.8831250000000001e+01 0.0000000000000000e+00 0 0 0
3145 444 4 0.0000000000000000e+00 1.6814000000000000e+00 1.8844020000000000e+01 3.5699100000000001e+00 0 0 0
2596 444 2 -8.2999999999999996e-01 1.0060995434367033e+00 2.0222687007854450e+01 6.4675898291832432e+00 1 -2 0
2598 444 1 4.1499999999999998e-01 2.1234303676413660e-01 2.0073501218673083e+01 6.9813270715284954e+00 1 -2 0
2597 444 1 4.1499999999999998e-01 1.4425199693251862e+00 1.9371005065384086e+01 6.4474179431298060e+00 1 -2 0
838 444 1 4.1499999999999998e-01 1.9758112973849848e+00 1.6783014887246413e+01 1.4243282485949948e+01 0 3 0
1347 444 1 4.1499999999999998e-01 5.6636288278792379e-01 2.0273350781585954e+01 9.9345932087673674e+00 2 0 0
551 444 1 4.1499999999999998e-01 2.0033963077646208e-01 2.0074804395952697e+01 1.4717881698722687e+01 4 2 0
550 444 2 -8.2999999999999996e-01 8.5713907304499282e-01 1.9588237025593948e+01 1.5215976792831347e+01 4 2 0
552 444 1 4.1499999999999998e-01 1.0604637010936964e+00 1.8829964490163228e+01 1.4668332570597517e+01 4 2 0
836 444 2 -8.2999999999999996e-01 1.6412021243500916e+00 1.7192318091738418e+01 1.3445322195587313e+01 0 3 0
2322 444 1 4.1499999999999998e-01 1.1432612346457611e+00 1.7554207085139414e+01 1.8588195851694053e+01 2 -3 0
2321 444 1 4.1499999999999998e-01 1.0424656643248651e+00 1.8614644655463653e+01 1.7512459948251980e+01 2 -3 0
1799 444 1 4.1499999999999998e-01 1.4974319053608602e+00 2.0312322584357993e+01 1.6522173630824511e+01 0 2 0
2320 444 2 -8.2999999999999996e-01 9.1270254367033010e-01 1.7679057573432107e+01 1.7667605187209823e+01 2 -3 0
3147 444 4 0.0000000000000000e+00 1.6560500000000000e+00 2.0648199999999999e+01 1.8169999999999999e+00 0 0 0
3165 444 4 0.0000000000000000e+00 1.6610100000000001e+00 2.2469700000000000e+01 3.5796100000000002e+00 0 0 0
3167 444 4 0.0000000000000000e+00 1.6560500000000000e+00 2.4282000000000000e+01 1.8169999999999999e+00 0 0 0
3176 444 4 0.0000000000000000e+00 1.6560500000000000e+00 2.2465050000000002e+01 0.0000000000000000e+00 0 0 0
395 444 1 4.1499999999999998e-01 1.4559888615461618e+00 2.2570543954818081e+01 7.7936313067722818e+00 2 3 0
396 444 1 4.1499999999999998e-01 1.2858077775658632e+00 2.1864235052258614e+01 6.4654516568938840e+00 2 3 0
394 444 2 -8.2999999999999996e-01 1.3557471711828588e+00 2.2735305763916244e+01 6.8560616004736232e+00 2 3 0
1290 444 1 4.1499999999999998e-01 2.0456215898060598e-02 2.4150806910474824e+01 1.4878171414869556e+01 0 2 0
1968 444 1 4.1499999999999998e-01 4.7626339349845170e-01 2.2413263802721474e+01 1.2451959431649247e+01 -2 -5 0
1976 444 1 4.1499999999999998e-01 2.0179221415225186e+00 2.3879270782852295e+01 1.1553828974987523e+01 0 2 0
1975 444 2 -8.2999999999999996e-01 1.5869716150590303e+00 2.4222478796184188e+01 1.2336594860270029e+01 0 2 0
1967 444 1 4.1499999999999998e-01 1.2710714816529429e+00 2.1533020931131396e+01 1.3392888642232684e+01 -2 -5 0
1345 444 2 -8.2999999999999996e-01 7.0597882471319340e-01 2.1108745311642306e+01 9.4886608001783763e+00 2 0 0
1966 444 2 -8.2999999999999996e-01 3.9647705191331140e-01 2.1896193010663936e+01 1.3253522965183567e+01 -2 -5 0
1346 444 1 4.1499999999999998e-01 1.4541638514689292e+00 2.1499595536768698e+01 9.9399780959767376e+00 2 0 0
718 444 2 -8.2999999999999996e-01 1.2747234649018446e+00 2.4491649272281133e+01 1.9579334377317135e+01 -2 -7 0
720 444 1 4.1499999999999998e-01 1.2156222232842786e+00 2.3739275820283826e+01 1.8990544593114738e+01 -2 -7 0
1032 444 1 4.1499999999999998e-01 5.4133927256484149e-01 2.1493382348798402e+01 1.7445907587028856e+01 3 0 0
1798 444 2 -8.2999999999999996e-01 1.9143023761283733e+00 2.0724355756112708e+01 1.7278929536981003e+01 0 2 0
3182 444 4 0.0000000000000000e+00 1.6560500000000000e+00 2.6098949999999999e+01 0.0000000000000000e+00 0 0 0
3183 444 4 0.0000000000000000e+00 1.6506900000000000e+00 2.6104230000000001e+01 3.5749000000000000e+00 0 0 0
3185 444 4 0.0000000000000000e+00 1.6560500000000000e+00 2.7915800000000001e+01 1.8169999999999999e+00 0 0 0
2526 444 1 4.1499999999999998e-01 8.3176703188342482e-01 2.6381644948017357e+01 6.2463743380721128e+00 2 1 0
2524 444 2 -8.2999999999999996e-01 1.6647823465043461e+00 2.6596205566477124e+01 6.6662336246207197e+00 2 1 0
2525 444 1 4.1499999999999998e-01 1.8476359500836437e+00 2.7494689641235698e+01 6.3914190179127175e+00 2 1 0
1813 444 2 -8.2999999999999996e-01 1.7366278282298320e+00 2.6478894386007205e+01 9.5427683057946791e+00 2 0 0
1294 444 2 -8.2999999999999996e-01 1.8444106727128529e+00 2.6985771418806610e+01 1.5723104102621752e+01 2 0 0
1977 444 1 4.1499999999999998e-01 1.0712848671039465e+00 2.4964489719621461e+01 1.2020811727111909e+01 0 2 0
8 444 1 4.1499999999999998e-01 2.5574643767235106e-01 2.6114866581548537e+01 1.0389312091967140e+01 -3 3 0
1814 444 1 4.1499999999999998e-01 1.9313250650098264e+00 2.7400401722609118e+01 9.7134968842957807e+00 2 0 0
1815 444 1 4.1499999999999998e-01 1.7224497312322280e+00 2.6409461800362536e+01 8.5881951669067167e+00 2 0 0
455 444 1 4.1499999999999998e-01 4.8947319037480302e-01 2.8298807570173011e+01 1.2997889230235470e+01 1 1 0
2541 444 1 4.1499999999999998e-01 6.2570841337262151e-01 2.7786726997506030e+01 1.6522327844684746e+01 2 0 0
1539 444 1 4.1499999999999998e-01 1.3431903967661800e+00 2.6233415783297275e+01 1.9417282134565610e+01 2 3 0
1537 444 2 -8.2999999999999996e-01 1.2386501556740133e+00 2.7182606630418334e+01 1.9351398173970285e+01 2 3 0
1538 444 1 4.1499999999999998e-01 4.5034612099544452e-01 2.7301017359322895e+01 1.8821504168404857e+01 2 3 0
3202 444 4 0.0000000000000000e+00 1.6560500000000000e+00 2.9732749999999999e+01 0.0000000000000000e+00 0 0 0
3203 444 4 0.0000000000000000e+00 1.6814000000000000e+00 2.9745519999999999e+01 3.5699100000000001e+00 0 0 0
3205 444 4 0.0000000000000000e+00 1.6560500000000000e+00 3.1549700000000001e+01 1.8169999999999999e+00 0 0 0
704 444 1 4.1499999999999998e-01 1.1869594975372788e+00 2.9582141588930092e+01 6.3784605938895096e+00 1 -3 0
2652 444 1 4.1499999999999998e-01 7.2860239140201655e-01 3.2142634090333715e+01 6.9111261228656087e+00 1 0 0
751 444 2 -8.2999999999999996e-01 1.0536252572891753e+00 2.9217515469446479e+01 8.7757861543992046e+00 -1 -5 0
456 444 1 4.1499999999999998e-01 2.4648359784950052e-01 2.9425656733739984e+01 1.3979246362258190e+01 1 1 0
752 444 1 4.1499999999999998e-01 1.5850916286503633e+00 2.9971690402895959e+01 9.0307276071433815e+00 -1 -5 0
1780 444 2 -8.2999999999999996e-01 1.1051810317242838e+00 3.1669918280307982e+01 1.0523178626435801e+01 0 -1 0
646 444 2 -8.2999999999999996e-01 1.3377730245588846e+00 3.0211953083548956e+01 1.5797877044581545e+01 4 1 0
648 444 1 4.1499999999999998e-01 1.3172962272213071e+00 3.1159084247872027e+01 1.5934825144230320e+01 4 1 0
1781 444 1 4.1499999999999998e-01 1.7929622507736847e+00 3.1132049698120216e+01 1.0915462639717926e+01 0 -1 0
1782 444 1 4.1499999999999998e-01 1.5409590836149303e+00 3.2492991202071551e+01 1.0302088164386811e+01 0 -1 0
753 444 1 4.1499999999999998e-01 1.4971498522808216e-01 2.9514260454073096e+01 8.8812398865641082e+00 -1 -5 0
558 444 1 4.1499999999999998e-01 1.6505112395661861e+00 3.1019299895110890e+01 1.8607859037499924e+01 1 -2 0
3050 444 4 0.0000000000000000e+00 3.4729999999999999e+00 6.6205000000000003e-01 1.8169999999999999e+00 0 0 0
3074 444 4 0.0000000000000000e+00 3.4674299999999998e+00 2.4744299999999999e+00 3.5794600000000001e+00 0 0 0
3075 444 4 0.0000000000000000e+00 3.4729999999999999e+00 2.4790000000000001e+00 0.0000000000000000e+00 0 0 0
2262 444 1 4.1499999999999998e-01 2.7118928858486395e+00 2.3385316927214119e+00 6.9943684821169638e+00 2 4 0
2228 444 1 4.1499999999999998e-01 2.4228511365327803e+00 2.3880236267353544e-01 6.8150902135271103e+00 2 3 0
1547 444 1 4.1499999999999998e-01 3.3323161752975334e+00 3.0267772131774375e+00 1.3813954434894468e+01 0 2 0
1591 444 2 -8.2999999999999996e-01 2.7574643816278459e+00 1.3867561599103457e+00 1.3516217913098149e+01 1 1 0
489 444 1 4.1499999999999998e-01 2.7888630378354282e+00 2.0182475041460224e+00 9.7902394717373920e+00 -2 -2 0
1593 444 1 4.1499999999999998e-01 3.2297305418566808e+00 7.0424575918984444e-01 1.3039377077408609e+01 1 1 0
1546 444 2 -8.2999999999999996e-01 3.7546387956167289e+00 3.8517530722062574e+00 1.4053308218156239e+01 0 2 0
1592 444 1 4.1499999999999998e-01 2.4669155940303895e+00 9.5937378417335584e-01 1.4321921192050848e+01 1 1 0
611 444 1 4.1499999999999998e-01 3.6585433955050912e+00 6.8571082966910479e-01 1.8009824957695017e+01 1 4 0
610 444 2 -8.2999999999999996e-01 3.6203785039864127e+00 4.5252903320364535e-01 1.7082246624723812e+01 1 4 0
1855 444 2 -8.2999999999999996e-01 3.6549080772447100e+00 9.3847195491825164e-01 1.9737820758294887e+01 -2 3 0
2106 444 1 4.1499999999999998e-01 2.0998091123413816e+00 2.3064388937301192e+00 1.9747460490622721e+01 0 -3 0
3064 444 4 0.0000000000000000e+00 3.4729999999999999e+00 6.1128000000000000e+00 0.0000000000000000e+00 0 0 0
3065 444 4 0.0000000000000000e+00 3.4729299999999999e+00 6.1130300000000002e+00 3.5792999999999999e+00 0 0 0
3068 444 4 0.0000000000000000e+00 3.4729999999999999e+00 4.2959500000000004e+00 1.8169999999999999e+00 0 0 0
3088 444 4 0.0000000000000000e+00 3.4729999999999999e+00 7.9297500000000003e+00 1.8169999999999999e+00 0 0 0
757 444 2 -8.2999999999999996e-01 3.5674354960984833e+00 6.8587383105704953e+00 5.9731777932051324e+00 4 1 0
759 444 1 4.1499999999999998e-01 3.3404869806664910e+00 7.7886364175688207e+00 5.9771451415185757e+00 4 1 0
824 444 1 4.1499999999999998e-01 2.8365534115574995e+00 5.8875813221527649e+00 7.2073615345189319e+00 0 2 0
823 444 2 -8.2999999999999996e-01 2.3499801467052697e+00 5.3513051183525580e+00 7.8333705899450017e+00 0 2 0
783 444 1 4.1499999999999998e-01 3.6051169763143140e+00 5.5542605563164757e+00 1.4645128973628475e+01 0 -1 0
782 444 1 4.1499999999999998e-01 3.3518742773669286e+00 6.7815260793779215e+00 1.5494589323291631e+01 0 -1 0
781 444 2 -8.2999999999999996e-01 3.4099659332442300e+00 6.4894190014770965e+00 1.4584902114682631e+01 0 -1 0
2007 444 1 4.1499999999999998e-01 3.5260412197827256e+00 7.1043239312364088e+00 1.0855127976590525e+01 6 0 0
2005 444 2 -8.2999999999999996e-01 2.9730022167849990e+00 6.5250599468070556e+00 1.0330882842993091e+01 6 0 0
825 444 1 4.1499999999999998e-01 2.6462119384558549e+00 5.6555656280775537e+00 8.6912196378724449e+00 0 2 0
2006 444 1 4.1499999999999998e-01 2.3412474546926232e+00 6.1671670359561679e+00 1.0954605915258570e+01 6 0 0
2854 444 2 -8.2999999999999996e-01 2.6277666918863622e+00 6.2194831077688217e+00 1.7252168288963592e+01 0 0 0
2855 444 1 4.1499999999999998e-01 3.5098259460772487e+00 5.9588637229512873e+00 1.7517275035533718e+01 0 0 0
1412 444 1 4.1499999999999998e-01 2.1162943210203329e+00 7.5651100457791678e+00 1.8589497527985124e+01 4 1 0
2856 444 1 4.1499999999999998e-01 2.0539011696795506e+00 5.5669176015766189e+00 1.7653502584509113e+01 0 0 0
3084 444 4 0.0000000000000000e+00 3.4729999999999999e+00 9.7467000000000006e+00 0.0000000000000000e+00 0 0 0
3085 444 4 0.0000000000000000e+00 3.4777100000000001e+00 9.7511500000000009e+00 3.5794299999999999e+00 0 0 0
3108 444 4 0.0000000000000000e+00 3.4729999999999999e+00 1.1563549999999999e+01 1.8169999999999999e+00 0 0 0
2338 444 2 -8.2999999999999996e-01 2.9995291124846228e+00 9.5035945656095944e+00 6.3346021958490928e+00 -2 4 0
2339 444 1 4.1499999999999998e-01 3.7514253500552468e+00 1.0014277188304771e+01 6.6347485622336206e+00 -2 4 0
2340 444 1 4.1499999999999998e-01 2.2376669558536362e+00 9.9948280212988685e+00 6.6419906748113124e+00 -2 4 0
262 444 2 -8.2999999999999996e-01 3.2611288341079590e+00 1.1355623086127807e+01 1.5615366021585027e+01 -5 -4 0
2288 444 1 4.1499999999999998e-01 2.3884919696943254e+00 1.1603773547971732e+01 1.0846365226829976e+01 2 -3 0
2287 444 2 -8.2999999999999996e-01 2.6185247161796736e+00 1.1767756172108909e+01 1.1760929244362970e+01 2 -3 0
263 444 1 4.1499999999999998e-01 3.9442509566967807e+00 1.0803605143939489e+01 1.5234771544370092e+01 -5 -4 0
2289 444 1 4.1499999999999998e-01 2.1459201964856196e+00 1.1095316825585659e+01 1.2251543454917135e+01 2 -3 0
402 444 1 4.1499999999999998e-01 2.2318081214989491e+00 8.3634712675643854e+00 1.6591931197015015e+01 4 -2 0
264 444 1 4.1499999999999998e-01 2.6704408243489026e+00 1.0740800264729389e+01 1.6050466324982516e+01 -5 -4 0
792 444 1 4.1499999999999998e-01 3.8494499636138295e+00 1.0578585374398452e+01 1.9244762487311288e+01 3 -3 0
1413 444 1 4.1499999999999998e-01 2.4372465649065775e+00 8.7801566094382419e+00 1.9433622290297549e+01 4 1 0
2527 444 2 -8.2999999999999996e-01 3.4816819824204646e+00 1.2139090640292592e+01 1.9752201707889387e+01 -5 3 0
3126 444 4 0.0000000000000000e+00 3.4729999999999999e+00 1.5197450000000000e+01 1.8169999999999999e+00 0 0 0
3132 444 4 0.0000000000000000e+00 3.4674299999999998e+00 1.3375930000000000e+01 3.5794600000000001e+00 0 0 0
3133 444 4 0.0000000000000000e+00 3.4729999999999999e+00 1.3380500000000000e+01 0.0000000000000000e+00 0 0 0
2156 444 1 4.1499999999999998e-01 3.1185253848486898e+00 1.3028301993027567e+01 6.6556064822688743e+00 -3 -1 0
2157 444 1 4.1499999999999998e-01 4.0768374999697459e+00 1.4073887771864772e+01 7.1850254627456627e+00 -3 -1 0
2155 444 2 -8.2999999999999996e-01 4.0201809953021979e+00 1.3146627244884234e+01 6.9543523297930641e+00 -3 -1 0
2928 444 1 4.1499999999999998e-01 2.2316965804380482e+00 1.4702102642632296e+01 7.4682822582735149e+00 0 0 0
1006 444 2 -8.2999999999999996e-01 3.1637602451855322e+00 1.5903242558471199e+01 1.0372397984874514e+01 1 4 0
1007 444 1 4.1499999999999998e-01 2.5664174549255616e+00 1.5174684638569609e+01 1.0541563152830264e+01 1 4 0
2284 444 2 -8.2999999999999996e-01 2.4387613970442636e+00 1.5808058376761132e+01 1.5683055508159745e+01 0 -2 0
1008 444 1 4.1499999999999998e-01 3.5716324984015975e+00 1.6080919841745882e+01 1.1219925419454221e+01 1 4 0
1155 444 1 4.1499999999999998e-01 4.0048968893519596e+00 1.5807937836296876e+01 1.3851862896256804e+01 -2 1 0
1153 444 2 -8.2999999999999996e-01 3.9248366693770262e+00 1.5651169818317030e+01 1.2910987740598980e+01 -2 1 0
2286 444 1 4.1499999999999998e-01 2.2983794771056911e+00 1.4953088981360359e+01 1.5276174579928723e+01 0 -2 0
2028 444 1 4.1499999999999998e-01 2.2027291143552570e+00 1.2678410179734453e+01 1.5099786810092029e+01 1 3 0
2528 444 1 4.1499999999999998e-01 2.6300888310435000e+00 1.2506046472761208e+01 1.9989613468451033e+01 -5 3 0
293 444 1 4.1499999999999998e-01 3.7565742925606243e+00 1.5644985227935702e+01 1.8871755117826403e+01 2 -1 0
663 444 1 4.1499999999999998e-01 3.8835096577694239e+00 1.2404658859042653e+01 1.6824040603118625e+01 1 -6 0
3122 444 4 0.0000000000000000e+00 3.4729999999999999e+00 1.7014299999999999e+01 0.0000000000000000e+00 0 0 0
3123 444 4 0.0000000000000000e+00 3.4729299999999999e+00 1.7014530000000001e+01 3.5792999999999999e+00 0 0 0
3146 444 4 0.0000000000000000e+00 3.4729999999999999e+00 1.8831250000000001e+01 1.8169999999999999e+00 0 0 0
1703 444 1 4.1499999999999998e-01 3.3831914499845568e+00 1.7733500945929695e+01 6.4926386126309668e+00 3 5 0
1702 444 2 -8.2999999999999996e-01 2.4587309596471565e+00 1.7938740693957854e+01 6.6322141157714034e+00 3 5 0
1704 444 1 4.1499999999999998e-01 2.0481150141294222e+00 1.7091395213633124e+01 6.8043537498828055e+00 3 5 0
1380 444 1 4.1499999999999998e-01 3.9692769537126962e+00 2.0402475783000259e+01 1.2859704719431059e+01 2 1 0
762 444 1 4.1499999999999998e-01 2.6986066486173259e+00 1.7548280258298899e+01 9.5446860359849310e+00 1 -1 0
839 444 1 4.1499999999999998e-01 2.1396440309213003e+00 1.6782599288834227e+01 1.2738272906031186e+01 0 3 0
760 444 2 -8.2999999999999996e-01 2.7067215846924486e+00 1.8412643309788077e+01 9.1335374578957538e+00 1 -1 0
2877 444 1 4.1499999999999998e-01 3.6990052778628217e+00 1.7318710113050173e+01 1.5954755981301279e+01 4 2 0
761 444 1 4.1499999999999998e-01 2.4484903058294885e+00 1.8249339628198307e+01 8.2264093071577324e+00 1 -1 0
1800 444 1 4.1499999999999998e-01 2.8092430763307394e+00 2.0384808829779921e+01 1.7274365261295561e+01 0 2 0
3142 444 4 0.0000000000000000e+00 3.4729999999999999e+00 2.0648199999999999e+01 0.0000000000000000e+00 0 0 0
3143 444 4 0.0000000000000000e+00 3.4777100000000001e+00 2.0652650000000001e+01 3.5794299999999999e+00 0 0 0
3166 444 4 0.0000000000000000e+00 3.4729999999999999e+00 2.2465050000000002e+01 1.8169999999999999e+00 0 0 0
3190 444 4 0.0000000000000000e+00 3.4674299999999998e+00 2.4277429999999999e+01 3.5794600000000001e+00 0 0 0
3191 444 4 0.0000000000000000e+00 3.4729999999999999e+00 2.4282000000000000e+01 0.0000000000000000e+00 0 0 0
680 444 1 4.1499999999999998e-01 2.4233242398601531e+00 2.3865832223253648e+01 6.8721511623083966e+00 -3 4 0
98 444 1 4.1499999999999998e-01 3.2866852102299515e+00 2.0483113451640406e+01 6.7177167949334669e+00 0 -1 0
2299 444 2 -8.2999999999999996e-01 3.8442434517131168e+00 2.2331587273021825e+01 1.5688648073412454e+01 2 0 0
1100 444 1 4.1499999999999998e-01 2.6775689345776748e+00 2.3632482167339884e+01 1.5438851427849167e+01 3 4 0
1378 444 2 -8.2999999999999996e-01 3.5393920766587401e+00 2.1249304886691331e+01 1.2740072113869536e+01 2 1 0
205 444 2 -8.2999999999999996e-01 2.8106639942185443e+00 2.2747990736618036e+01 1.0345568462568531e+01 -1 1 0
1379 444 1 4.1499999999999998e-01 3.5708245691016178e+00 2.1658679696148720e+01 1.3604743436965288e+01 2 1 0
207 444 1 4.1499999999999998e-01 3.1587975077301613e+00 2.2189931700780065e+01 1.1040985490288573e+01 -1 1 0
206 444 1 4.1499999999999998e-01 3.5246332074444733e+00 2.3352482561203658e+01 1.0142912723885658e+01 -1 1 0
1101 444 1 4.1499999999999998e-01 2.1636479891980951e+00 2.4201374627572324e+01 1.4133423368869311e+01 3 4 0
1099 444 2 -8.2999999999999996e-01 2.2903722701130578e+00 2.4420034985577008e+01 1.5056657449776601e+01 3 4 0
2300 444 1 4.1499999999999998e-01 4.0612498699046924e+00 2.1541713921034400e+01 1.6183864777387491e+01 2 0 0
719 444 1 4.1499999999999998e-01 2.1465565152696127e+00 2.4423839905142060e+01 1.9968618677575343e+01 -2 -7 0
3180 444 4 0.0000000000000000e+00 3.4729999999999999e+00 2.7915800000000001e+01 0.0000000000000000e+00 0 0 0
3181 444 4 0.0000000000000000e+00 3.4729299999999999e+00 2.7916029999999999e+01 3.5792999999999999e+00 0 0 0
3184 444 4 0.0000000000000000e+00 3.4729999999999999e+00 2.6098949999999999e+01 1.8169999999999999e+00 0 0 0
681 444 1 4.1499999999999998e-01 2.5936410678652986e+00 2.5369118104351671e+01 6.8172066646233649e+00 -3 4 0
679 444 2 -8.2999999999999996e-01 3.0891455257761509e+00 2.4550240774550449e+01 6.8050780239572193e+00 -3 4 0
1295 444 1 4.1499999999999998e-01 2.2823626898891631e+00 2.7510138366704709e+01 1.5052679249194417e+01 2 0 0
1296 444 1 4.1499999999999998e-01 2.0837514307813847e+00 2.6082502195983505e+01 1.5515609717727090e+01 2 0 0
2616 444 1 4.1499999999999998e-01 4.0636635477660032e+00 2.8208044374509836e+01 8.2765351344916915e+00 3 3 0
243 444 1 4.1499999999999998e-01 3.4234175069965409e+00 2.6488540755368636e+01 1.7285040675746767e+01 0 0 0
3200 444 4 0.0000000000000000e+00 3.4729999999999999e+00 3.1549700000000001e+01 0.0000000000000000e+00 0 0 0
3201 444 4 0.0000000000000000e+00 3.4777100000000001e+00 3.1554150000000000e+01 3.5794299999999999e+00 0 0 0
3204 444 4 0.0000000000000000e+00 3.4729999999999999e+00 2.9732749999999999e+01 1.8169999999999999e+00 0 0 0
2227 444 2 -8.2999999999999996e-01 2.7927978189809153e+00 3.2060528341773747e+01 6.8060955698112418e+00 2 2 0
703 444 2 -8.2999999999999996e-01 2.1337670971145961e+00 2.9492254623246520e+01 6.2702594026346601e+00 1 -3 0
705 444 1 4.1499999999999998e-01 2.4776216454880964e+00 3.0372013384244120e+01 6.4252443588476931e+00 1 -3 0
2229 444 1 4.1499999999999998e-01 3.7289415709546145e+00 3.2191081341197716e+01 6.9571666057130503e+00 2 2 0
1337 444 1 4.1499999999999998e-01 2.9403498535647690e+00 2.8998691222244346e+01 1.2789042434364351e+01 3 0 0
1336 444 2 -8.2999999999999996e-01 2.7698094093864762e+00 2.9051318051903994e+01 1.3729456703951422e+01 3 0 0
517 444 2 -8.2999999999999996e-01 3.2605164291857389e+00 2.9905682438603311e+01 1.1187062824688068e+01 2 0 0
1338 444 1 4.1499999999999998e-01 3.2238179189339089e+00 2.9845352220323825e+01 1.4011624174478213e+01 3 0 0
519 444 1 4.1499999999999998e-01 4.0464750172225781e+00 3.0290398942351228e+01 1.1574999867671417e+01 2 0 0
787 444 2 -8.2999999999999996e-01 3.8980843467766713e+00 3.1175983441530736e+01 1.5319384514819467e+01 -5 0 0
518 444 1 4.1499999999999998e-01 3.5488952372972062e+00 2.9578724251809138e+01 1.0334907605270454e+01 2 0 0
2614 444 2 -8.2999999999999996e-01 3.7579513783828071e+00 2.9049004297484405e+01 8.6164738605493252e+00 3 3 0
2615 444 1 4.1499999999999998e-01 2.8429334841658651e+00 2.9101153154350765e+01 8.3403315799292894e+00 3 3 0
647 444 1 4.1499999999999998e-01 2.2689952181258159e+00 2.9990579136262820e+01 1.5790743937796385e+01 4 1 0
789 444 1 4.1499999999999998e-01 3.9547423520788150e+00 3.1945073370077331e+01 1.5886414702327334e+01 -5 0 0
557 444 1 4.1499999999999998e-01 2.8356911736280868e+00 3.1755685255529521e+01 1.8020508453223265e+01 1 -2 0
556 444 2 -8.2999999999999996e-01 2.6022780834302579e+00 3.1096570286155774e+01 1.8674203990571581e+01 1 -2 0
1452 444 1 4.1499999999999998e-01 3.9725666313522043e+00 3.0048591044971307e+01 1.8104416270972674e+01 -3 -1 0
3054 444 4 0.0000000000000000e+00 5.2898399999999999e+00 6.6205000000000003e-01 0.0000000000000000e+00 0 0 0
3055 444 4 0.0000000000000000e+00 5.2846900000000003e+00 6.5669999999999995e-01 3.5795300000000001e+00 0 0 0
3057 444 4 0.0000000000000000e+00 5.2898399999999999e+00 2.4790000000000001e+00 1.8169999999999999e+00 0 0 0
460 444 2 -8.2999999999999996e-01 4.2268942851835867e+00 2.7208440294165457e+00 6.6622193830299903e+00 0 -7 0
280 444 2 -8.2999999999999996e-01 5.3950976791671730e+00 7.9101941037859821e-02 7.8590753113773868e+00 3 2 0
462 444 1 4.1499999999999998e-01 5.1078761448410805e+00 2.4398243959495196e+00 6.4149718427478124e+00 0 -7 0
461 444 1 4.1499999999999998e-01 4.2650170338389533e+00 3.6770345230836616e+00 6.6403489686853110e+00 0 -7 0
1548 444 1 4.1499999999999998e-01 4.3391099211187223e+00 3.6214625513487575e+00 1.4775520987090614e+01 0 2 0
2394 444 1 4.1499999999999998e-01 5.3493175443741103e+00 2.3853861335245155e+00 9.5286343786173067e+00 -1 0 0