LAMMPS data file via write_data, version 11 Aug 2017, timestep = 1000000

3567 atoms
14 atom types
2024 bonds
5 bond types
1018 angles
5 angle types
12 dihedrals
4 dihedral types
9 impropers
1 improper types

0.0000000000000000e+00 3.2704500000000003e+01 xlo xhi
0.0000000000000000e+00 3.2704500000000003e+01 ylo yhi
0.0000000000000000e+00 8.0000000000000000e+01 zlo zhi

Masses

1 1.0079
2 15.9994
3 39.0983
4 63.546
5 12.011
6 15.9994
7 1.0079
8 12.011
9 1.0079
10 12.011
11 15.9994
12 15.9994
13 15.9994
14 1.0079

Bond Coeffs # harmonic

1 450 0.9572
2 570 1.229
3 450 1.364
4 570 1.229
5 553 0.945

Angle Coeffs # harmonic

1 100 123.32
2 85 124
3 55 104.52
4 35 113
5 100 123.32

Dihedral Coeffs # charmm

1 0.922 1 180 0
2 3.741 2 0 0
3 0.922 1 0 0
4 3.741 2 180 0

Improper Coeffs # umbrella

1 21 0

Atoms # full

3037 444 4 0.0000000000000000e+00 1.6693899999999999e+00 6.6883000000000004e-01 3.5969199999999999e+00 0 0 0
3039 444 4 0.0000000000000000e+00 1.6560500000000000e+00 2.4790000000000001e+00 1.8169999999999999e+00 0 0 0
3048 444 4 0.0000000000000000e+00 1.6560500000000000e+00 6.6205000000000003e-01 0.0000000000000000e+00 0 0 0
1041 444 1 4.1499999999999998e-01 1.3645205527405495e+00 3.0915509194606638e-01 7.7663475061638740e+00 -1 -2 0
729 444 1 4.1499999999999998e-01 1.4980187219119980e+00 2.3005233352899968e+00 7.0050873196690668e+00 -2 4 0
727 444 2 -8.2999999999999996e-01 1.4773283118503262e+00 3.0287285917100566e+00 6.3841837055771640e+00 -2 4 0
2451 444 1 4.1499999999999998e-01 9.0813026222115956e-01 1.5241524231941777e+00 9.7261789379588084e+00 1 1 0
2449 444 2 -8.2999999999999996e-01 5.2313728407173887e-01 1.9734332585620826e+00 1.0478614418016052e+01 1 1 0
1689 444 1 4.1499999999999998e-01 4.4485368546032905e-01 1.8389354125312116e+00 1.3621678873073011e+01 1 -2 0
2450 444 1 4.1499999999999998e-01 1.0172846773997304e+00 2.7901874836212657e+00 1.0549061560846660e+01 1 1 0
1687 444 2 -8.2999999999999996e-01 9.3062674520364963e-01 1.1551130997287844e+00 1.3160544871086586e+01 1 -2 0
1688 444 1 4.1499999999999998e-01 7.7690278084999997e-01 1.3353853468213619e+00 1.2233127021817051e+01 1 -2 0
1039 444 2 -8.2999999999999996e-01 1.6785926689718813e+00 9.9600507055647569e-01 8.3544190064895023e+00 -1 -2 0
1295 444 1 4.1499999999999998e-01 7.2325966607985093e-01 3.9230956641551264e+00 1.3734892251511848e+01 3 4 0
2070 444 1 4.1499999999999998e-01 8.3779634460313979e-01 1.1240610661674890e+00 1.7503156317232044e+01 -1 2 0
2068 444 2 -8.2999999999999996e-01 6.8260451325815064e-01 1.1291036335564832e+00 1.6558633871854894e+01 -1 2 0
2782 444 2 -8.2999999999999996e-01 1.9132523396475937e-01 1.9067658758779877e+00 1.9742822889004039e+01 0 3 0
2069 444 1 4.1499999999999998e-01 5.0374330027490422e-01 2.0459418206394311e+00 1.6349709438458209e+01 -1 2 0
1097 444 1 4.1499999999999998e-01 1.4681176429012038e-01 3.0849410156194765e+00 1.8049323639486296e+01 4 3 0
3054 444 4 0.0000000000000000e+00 1.6560500000000000e+00 4.2959500000000004e+00 0.0000000000000000e+00 0 0 0
3055 444 4 0.0000000000000000e+00 1.6724699999999999e+00 4.2797200000000002e+00 3.5825100000000001e+00 0 0 0
3057 444 4 0.0000000000000000e+00 1.6560500000000000e+00 6.1128000000000000e+00 1.8169999999999999e+00 0 0 0
3074 444 4 0.0000000000000000e+00 1.6560500000000000e+00 7.9297500000000003e+00 0.0000000000000000e+00 0 0 0
3075 444 4 0.0000000000000000e+00 1.6715599999999999e+00 7.9311100000000003e+00 3.5735899999999998e+00 0 0 0
2319 444 1 4.1499999999999998e-01 2.0048063354390573e+00 7.3242411581205387e+00 7.1481289524003113e+00 -2 3 0
2320 444 2 -8.2999999999999996e-01 3.5880889892485462e-01 5.3418204669653431e+00 8.8030576611375011e+00 0 -2 0
2322 444 1 4.1499999999999998e-01 9.8043911873289702e-01 5.7233477833144075e+00 8.1831828744632169e+00 0 -2 0
886 444 2 -8.2999999999999996e-01 4.5193265291703133e-01 5.7897055079058193e+00 1.5563611348828085e+01 0 -1 0
1382 444 1 4.1499999999999998e-01 1.1502595427194262e+00 5.6165010565550082e+00 1.3836946389509880e+01 6 1 0
2321 444 1 4.1499999999999998e-01 9.0300481123117626e-01 4.8429498609208013e+00 9.4123283971151768e+00 0 -2 0
919 444 2 -8.2999999999999996e-01 1.9842167483107489e+00 4.2215238437703615e+00 1.0565477037951249e+01 3 -3 0
1381 444 2 -8.2999999999999996e-01 1.4791096878024836e+00 5.6634679785160715e+00 1.2939235445909649e+01 6 1 0
1383 444 1 4.1499999999999998e-01 1.7355630667575963e+00 6.5785923239659354e+00 1.2825167893933985e+01 6 1 0
888 444 1 4.1499999999999998e-01 1.1685665391489897e+00 5.9234130477600662e+00 1.6183925841623058e+01 0 -1 0
3077 444 4 0.0000000000000000e+00 1.6560500000000000e+00 9.7467000000000006e+00 1.8169999999999999e+00 0 0 0
3096 444 4 0.0000000000000000e+00 1.6693899999999999e+00 1.1570320000000001e+01 3.5969199999999999e+00 0 0 0
3107 444 4 0.0000000000000000e+00 1.6560500000000000e+00 1.1563549999999999e+01 0.0000000000000000e+00 0 0 0
2397 444 1 4.1499999999999998e-01 6.3520331523494111e-01 8.8649729279335077e+00 6.6292109068981775e+00 3 0 0
2396 444 1 4.1499999999999998e-01 1.7574499147750406e+00 9.8807732542825377e+00 6.6538652385198809e+00 3 0 0
2022 444 1 4.1499999999999998e-01 3.7068264208154372e-01 1.1350889082050632e+01 6.9846372688002392e+00 3 2 0
2395 444 2 -8.2999999999999996e-01 1.5895347622630893e+00 8.9385576182585673e+00 6.6375224242268454e+00 3 0 0
136 444 2 -8.2999999999999996e-01 3.1126779802366500e-01 1.0062407890867043e+01 9.8016046292789873e+00 -1 -2 0
2560 444 2 -8.2999999999999996e-01 1.1325393748873944e+00 9.4309788188517292e+00 1.2348890207214170e+01 -4 2 0
1403 444 1 4.1499999999999998e-01 8.0739113128780526e-01 1.1642313462946317e+01 1.4406347008730025e+01 1 0 0
1404 444 1 4.1499999999999998e-01 1.3664632850354277e+00 1.0980649182468113e+01 1.3164761768578352e+01 1 0 0
1402 444 2 -8.2999999999999996e-01 1.4886640977237338e+00 1.1735547322188665e+01 1.3740459280791136e+01 1 0 0
138 444 1 4.1499999999999998e-01 1.2346025543764962e+00 9.9341218720962896e+00 9.5842852379070536e+00 -1 -2 0
2562 444 1 4.1499999999999998e-01 4.5045286232712145e-01 9.0278288770295916e+00 1.1811805385751166e+01 -4 2 0
1738 444 2 -8.2999999999999996e-01 1.3147055721107779e+00 8.7880218560410217e+00 1.5595534351715255e+01 2 0 0
1739 444 1 4.1499999999999998e-01 5.0640389893190307e-01 8.2811970448202175e+00 1.5518017164004828e+01 2 0 0
1740 444 1 4.1499999999999998e-01 1.0713739513590446e+00 9.6715940368634676e+00 1.5319270364229688e+01 2 0 0
137 444 1 4.1499999999999998e-01 2.5451062441766625e-01 1.0977236056209211e+01 1.0077467527942511e+01 -1 -2 0
2561 444 1 4.1499999999999998e-01 1.9257235795769356e+00 8.9377904022669341e+00 1.2139471197940564e+01 -4 2 0
2050 444 2 -8.2999999999999996e-01 2.9986092845095230e-01 1.1184911800010942e+01 1.6038891294352677e+01 -1 3 0
495 444 1 4.1499999999999998e-01 2.2217714230962474e-01 1.1880677023693556e+01 1.9708347035691880e+01 5 0 0
493 444 2 -8.2999999999999996e-01 1.1328826727843617e+00 1.1597307213000134e+01 1.9627421845301047e+01 5 0 0
2051 444 1 4.1499999999999998e-01 6.0598108792226091e-01 1.1548262454079318e+01 1.6869853771824321e+01 -1 3 0
2325 444 1 4.1499999999999998e-01 3.1686275870822855e-01 8.2152932782985921e+00 1.9910575797428208e+01 -2 0 0
3098 444 4 0.0000000000000000e+00 1.6560500000000000e+00 1.3380500000000000e+01 1.8169999999999999e+00 0 0 0
3113 444 4 0.0000000000000000e+00 1.6560500000000000e+00 1.5197450000000000e+01 0.0000000000000000e+00 0 0 0
3114 444 4 0.0000000000000000e+00 1.6724699999999999e+00 1.5181220000000000e+01 3.5825100000000001e+00 0 0 0
1669 444 2 -8.2999999999999996e-01 9.3759749917855184e-01 1.5001039487307700e+01 6.4670298367122365e+00 2 2 0
1670 444 1 4.1499999999999998e-01 1.0151399848859672e+00 1.5165085636889089e+01 7.4068745382327572e+00 2 2 0
42 444 1 4.1499999999999998e-01 5.2910156026695764e-02 1.5167797968426052e+01 9.1976237897041120e+00 2 -2 0
2345 444 1 4.1499999999999998e-01 1.6295588435724495e+00 1.4300954798129471e+01 1.0056839420564600e+01 2 -5 0
40 444 2 -8.2999999999999996e-01 8.7372890572934814e-01 1.5565114655211218e+01 8.9067150382424245e+00 2 -2 0
2346 444 1 4.1499999999999998e-01 1.0956918033413443e+00 1.3071367123446292e+01 1.0760399748718529e+01 2 -5 0
2344 444 2 -8.2999999999999996e-01 1.8414054881937771e+00 1.3671313822525029e+01 1.0745973413573878e+01 2 -5 0
882 444 1 4.1499999999999998e-01 1.4666516715417505e-01 1.3585314538319418e+01 1.8609932716282906e+01 5 2 0
881 444 1 4.1499999999999998e-01 4.2524057108028751e-01 1.4411641116393822e+01 1.7372404573680956e+01 5 2 0
880 444 2 -8.2999999999999996e-01 6.4845562501814913e-01 1.3582193405453861e+01 1.7794807121684947e+01 5 2 0
494 444 1 4.1499999999999998e-01 1.6430211755877668e+00 1.2324043288131524e+01 1.9984976401102067e+01 5 0 0
3116 444 4 0.0000000000000000e+00 1.6560500000000000e+00 1.7014299999999999e+01 1.8169999999999999e+00 0 0 0
3133 444 4 0.0000000000000000e+00 1.6560500000000000e+00 1.8831250000000001e+01 0.0000000000000000e+00 0 0 0
3134 444 4 0.0000000000000000e+00 1.6715599999999999e+00 1.8832609999999999e+01 3.5735899999999998e+00 0 0 0
2033 444 1 4.1499999999999998e-01 1.3441119255924059e+00 1.9817440162764999e+01 6.3323383139917526e+00 -5 4 0
1121 444 1 4.1499999999999998e-01 1.5897466184067084e+00 1.7078174613679110e+01 6.4421017901415620e+00 0 1 0
1120 444 2 -8.2999999999999996e-01 1.9280821148742455e+00 1.7877452065373667e+01 6.8457315919521804e+00 0 1 0
807 444 1 4.1499999999999998e-01 1.9732716034812059e+00 1.8091268720223606e+01 1.3333457765234099e+01 2 -1 0
805 444 2 -8.2999999999999996e-01 1.0711711524213159e+00 1.7888792506237714e+01 1.3581349685397360e+01 2 -1 0
806 444 1 4.1499999999999998e-01 1.1540825549954192e+00 1.7337421110081909e+01 1.4359390744937597e+01 2 -1 0
41 444 1 4.1499999999999998e-01 7.2901460167865273e-01 1.6507150868528637e+01 8.9953571690143725e+00 2 -2 0
2187 444 1 4.1499999999999998e-01 2.6425750173970641e-03 1.8894753562653740e+01 1.2686309064611038e+01 -3 1 0
403 444 2 -8.2999999999999996e-01 1.5874706805681600e+00 1.7008495494239572e+01 1.6111037273318953e+01 6 -6 0
1707 444 1 4.1499999999999998e-01 8.4286332716239565e-01 1.9310187354016566e+01 1.8831409032219749e+01 0 -5 0
405 444 1 4.1499999999999998e-01 9.3220866095633359e-01 1.6670484888036366e+01 1.6721457184131719e+01 6 -6 0
1705 444 2 -8.2999999999999996e-01 3.8357448992973275e-01 1.9657926662624973e+01 1.8066972574793155e+01 0 -5 0
1439 444 1 4.1499999999999998e-01 1.0944144882264220e+00 1.6464371493853815e+01 1.9265614405119841e+01 3 -3 0
3136 444 4 0.0000000000000000e+00 1.6560500000000000e+00 2.0648199999999999e+01 1.8169999999999999e+00 0 0 0
3155 444 4 0.0000000000000000e+00 1.6693899999999999e+00 2.2471820000000001e+01 3.5969199999999999e+00 0 0 0
3157 444 4 0.0000000000000000e+00 1.6560500000000000e+00 2.4282000000000000e+01 1.8169999999999999e+00 0 0 0
3166 444 4 0.0000000000000000e+00 1.6560500000000000e+00 2.2465050000000002e+01 0.0000000000000000e+00 0 0 0
635 444 1 4.1499999999999998e-01 8.2128797651000895e-01 2.2383211470686174e+01 6.7152352018709065e+00 4 -1 0
634 444 2 -8.2999999999999996e-01 1.0609492014372752e+00 2.3289616626672981e+01 6.9081721918383741e+00 4 -1 0
2032 444 2 -8.2999999999999996e-01 8.1061603838738361e-01 2.0531462734254042e+01 6.6813174396009369e+00 -5 4 0
636 444 1 4.1499999999999998e-01 1.9053820591013375e+00 2.3224828732261848e+01 7.3542314966991507e+00 4 -1 0
814 444 2 -8.2999999999999996e-01 7.9117998989798333e-01 2.1751677581281420e+01 1.2741597716123930e+01 4 -1 0
2845 444 2 -8.2999999999999996e-01 4.1647899477085548e-01 2.1637926119295333e+01 9.6556166189603214e+00 2 0 0
2847 444 1 4.1499999999999998e-01 7.2274382628168043e-01 2.1360801222008398e+01 1.0519118799416635e+01 2 0 0
816 444 1 4.1499999999999998e-01 1.3483685484648102e+00 2.1708480856767828e+01 1.3518712180783199e+01 4 -1 0
815 444 1 4.1499999999999998e-01 1.0080947287131705e+00 2.2591684668146616e+01 1.2337162260049105e+01 4 -1 0
2846 444 1 4.1499999999999998e-01 1.2170317152786039e+00 2.1765950206874770e+01 9.1467379943253455e+00 2 0 0
1965 444 1 4.1499999999999998e-01 1.9412043244387129e+00 2.4229242604228112e+01 1.1173012742524044e+01 4 -2 0
1009 444 2 -8.2999999999999996e-01 1.5273819119895131e+00 2.2221426606988253e+01 1.7557789380054839e+01 -5 -1 0
1010 444 1 4.1499999999999998e-01 7.1560276947759549e-01 2.2714763799360515e+01 1.7440039906153739e+01 -5 -1 0
1706 444 1 4.1499999999999998e-01 6.3175893466834487e-01 2.0581927950064106e+01 1.8037679622246234e+01 0 -5 0
3172 444 4 0.0000000000000000e+00 1.6560500000000000e+00 2.6098949999999999e+01 0.0000000000000000e+00 0 0 0
3173 444 4 0.0000000000000000e+00 1.6724699999999999e+00 2.6082719999999998e+01 3.5825100000000001e+00 0 0 0
3175 444 4 0.0000000000000000e+00 1.6560500000000000e+00 2.7915800000000001e+01 1.8169999999999999e+00 0 0 0
2295 444 1 4.1499999999999998e-01 2.2787777571571999e-01 2.4902170190552674e+01 7.2511384361020994e+00 1 2 0
2653 444 2 -8.2999999999999996e-01 1.8925230305238290e+00 2.8017864171563605e+01 7.1004534592347408e+00 -1 3 0
2294 444 1 4.1499999999999998e-01 3.3269671359066572e-01 2.6406714217422476e+01 7.1197777740268418e+00 1 2 0
2655 444 1 4.1499999999999998e-01 2.0026698816094326e+00 2.8528568543313419e+01 7.9025019722917227e+00 -1 3 0
2119 444 2 -8.2999999999999996e-01 1.4685730496200644e+00 2.7261797395915984e+01 1.2535157759791746e+01 4 -1 0
1286 444 1 4.1499999999999998e-01 5.0639700153548683e-01 2.5708155877184510e+01 1.0100467960621243e+01 3 0 0
2120 444 1 4.1499999999999998e-01 1.9223411921699336e+00 2.7566439069265822e+01 1.1749333141243593e+01 4 -1 0
2214 444 1 4.1499999999999998e-01 9.8647847357860330e-01 2.5078989066220988e+01 1.4797888396379108e+01 2 -4 0
2212 444 2 -8.2999999999999996e-01 1.0217314309890137e-01 2.5190830015055258e+01 1.5146783826460107e+01 2 -4 0
2100 444 1 4.1499999999999998e-01 4.7755432295192501e-01 2.6068569180974805e+01 1.8685778765855737e+01 1 0 0
2099 444 1 4.1499999999999998e-01 2.6894264758254571e-01 2.4571011487576435e+01 1.8761262249433322e+01 1 0 0
2098 444 2 -8.2999999999999996e-01 7.7287873713291044e-01 2.5285647561418845e+01 1.9150589643557776e+01 1 0 0
3192 444 4 0.0000000000000000e+00 1.6560500000000000e+00 2.9732749999999999e+01 0.0000000000000000e+00 0 0 0
3193 444 4 0.0000000000000000e+00 1.6715599999999999e+00 2.9734110000000001e+01 3.5735899999999998e+00 0 0 0
3195 444 4 0.0000000000000000e+00 1.6560500000000000e+00 3.1549700000000001e+01 1.8169999999999999e+00 0 0 0
2149 444 2 -8.2999999999999996e-01 7.8687353913908176e-01 3.1701499634846574e+01 6.9652397292759796e+00 0 -2 0
2151 444 1 4.1499999999999998e-01 1.6137919319267420e+00 3.1228192633571908e+01 6.8734866239916199e+00 0 -2 0
2150 444 1 4.1499999999999998e-01 1.2293775009855572e-01 3.1087809243582715e+01 6.6509067475181833e+00 0 -2 0
1612 444 2 -8.2999999999999996e-01 1.4662945113133459e+00 3.0853464658587132e+01 1.1630424390437046e+01 -1 0 0
3011 444 1 4.1499999999999998e-01 1.2163325513916357e+00 3.1330642903947144e+01 1.5063589832208285e+01 -1 3 0
3010 444 2 -8.2999999999999996e-01 3.0035064856329119e-01 3.1545580507525074e+01 1.5239688895859453e+01 -1 3 0
3012 444 1 4.1499999999999998e-01 3.3947589592949745e-01 3.2308146561300198e+01 1.5816918636505303e+01 -1 3 0
156 444 1 4.1499999999999998e-01 1.8451844317287693e+00 2.8725054759362294e+01 1.3411401626537248e+01 -3 -6 0
155 444 1 4.1499999999999998e-01 1.9974758008175033e+00 3.0222229716859577e+01 1.3576233978889986e+01 -3 -6 0
732 444 1 4.1499999999999998e-01 1.8836338408888158e+00 2.9621946292083610e+01 1.0276686774853097e+01 -2 -2 0
1614 444 1 4.1499999999999998e-01 5.4117903693156888e-01 3.1095858499159068e+01 1.1670916364242524e+01 -1 0 0
1613 444 1 4.1499999999999998e-01 1.9330679526833818e+00 3.1640158119563971e+01 1.1912326402885148e+01 -1 0 0
1989 444 1 4.1499999999999998e-01 2.7776964229214762e-01 2.8714167065525213e+01 1.5255905589101173e+01 -1 2 0
3006 444 1 4.1499999999999998e-01 1.3508262425031570e+00 3.0955595078216536e+01 1.8042555782191471e+01 1 2 0
1435 444 2 -8.2999999999999996e-01 7.8914714904302297e-02 2.9357712736721069e+01 1.9728432918267902e+01 -1 0 0
3038 444 4 0.0000000000000000e+00 3.4729999999999999e+00 6.6205000000000003e-01 1.8169999999999999e+00 0 0 0
3062 444 4 0.0000000000000000e+00 3.4794499999999999e+00 2.4641299999999999e+00 3.5942300000000000e+00 0 0 0
3063 444 4 0.0000000000000000e+00 3.4729999999999999e+00 2.4790000000000001e+00 0.0000000000000000e+00 0 0 0
728 444 1 4.1499999999999998e-01 2.3983390294560443e+00 3.2394274237245035e+00 6.2306339979865433e+00 -2 4 0
1464 444 1 4.1499999999999998e-01 3.9523212605019626e+00 1.7898666410240649e+00 6.5713535041575097e+00 -1 1 0
829 444 2 -8.2999999999999996e-01 4.0391906434578555e+00 1.4996986112970481e-01 7.5197797361004683e+00 -2 4 0
1561 444 2 -8.2999999999999996e-01 3.4897141437484351e+00 1.8357750943121012e-01 1.2561234504834292e+01 -6 3 0
920 444 1 4.1499999999999998e-01 2.8301346760236616e+00 3.7810174236965799e+00 1.0484176983673116e+01 3 -3 0
1040 444 1 4.1499999999999998e-01 2.6304060958146631e+00 8.9460032964762060e-01 8.3551461217588407e+00 -1 -2 0
1563 444 1 4.1499999999999998e-01 2.7373668845754384e+00 6.4568748979167789e-01 1.2930910741663123e+01 -6 3 0
1154 444 1 4.1499999999999998e-01 3.0271836535430481e+00 8.2822577353222460e-01 1.9020835510605377e+01 3 -1 0
1153 444 2 -8.2999999999999996e-01 3.1707871296322572e+00 1.5043173665542858e-01 1.9681293820913009e+01 3 -1 0
2559 444 1 4.1499999999999998e-01 3.1556389030890357e+00 2.5026490489282027e+00 1.6968646696248321e+01 5 1 0
2557 444 2 -8.2999999999999996e-01 2.9122703352861521e+00 2.3763924262601721e+00 1.7885741520369603e+01 5 1 0
2558 444 1 4.1499999999999998e-01 3.1463706886740970e+00 3.2009240827129828e+00 1.8311859832330949e+01 5 1 0
3052 444 4 0.0000000000000000e+00 3.4729999999999999e+00 6.1128000000000000e+00 0.0000000000000000e+00 0 0 0
3053 444 4 0.0000000000000000e+00 3.4727700000000001e+00 6.1082700000000001e+00 3.5898800000000000e+00 0 0 0
3056 444 4 0.0000000000000000e+00 3.4729999999999999e+00 4.2959500000000004e+00 1.8169999999999999e+00 0 0 0
3076 444 4 0.0000000000000000e+00 3.4729999999999999e+00 7.9297500000000003e+00 1.8169999999999999e+00 0 0 0
2318 444 1 4.1499999999999998e-01 2.7125817252099660e+00 6.0051934558651894e+00 6.9221587805896752e+00 -2 3 0
2317 444 2 -8.2999999999999996e-01 2.1882405465717851e+00 6.4824462299443963e+00 7.5652202414072534e+00 -2 3 0
1855 444 2 -8.2999999999999996e-01 3.5169172785529632e+00 7.5559307564091061e+00 1.4546680230708731e+01 0 -2 0
1856 444 1 4.1499999999999998e-01 2.7346902235236650e+00 8.0325141708430792e+00 1.4824569072295434e+01 0 -2 0
2542 444 2 -8.2999999999999996e-01 3.9455546691246961e+00 4.6807728635055277e+00 1.5624009548013133e+01 -1 1 0
1490 444 1 4.1499999999999998e-01 3.3995344332182613e+00 6.8944427559470443e+00 8.7229459076274694e+00 0 2 0
1857 444 1 4.1499999999999998e-01 3.5051870756520884e+00 7.6118089793405188e+00 1.3591184123098463e+01 0 -2 0
606 444 1 4.1499999999999998e-01 3.5309434898242151e+00 8.0756730361727751e+00 1.0997476049632720e+01 0 1 0
1489 444 2 -8.2999999999999996e-01 4.0834254992177170e+00 7.1601889095837796e+00 9.3376857496342858e+00 0 2 0
2544 444 1 4.1499999999999998e-01 4.0301787950327297e+00 5.4759040591499613e+00 1.5097856372229428e+01 -1 1 0
921 444 1 4.1499999999999998e-01 2.0686117915066853e+00 4.7598240624644008e+00 1.1352460512762537e+01 3 -3 0
2174 444 1 4.1499999999999998e-01 2.5968768186617610e+00 6.8343550884352915e+00 1.7674345749169692e+01 -1 4 0
2543 444 1 4.1499999999999998e-01 3.3069982872768970e+00 4.9072540486922946e+00 1.6300163457250250e+01 -1 1 0
2175 444 1 4.1499999999999998e-01 2.4083480292682617e+00 5.4661734785879341e+00 1.8294371152584635e+01 -1 4 0
1885 444 2 -8.2999999999999996e-01 3.6243455583696966e+00 4.5444408930724176e+00 1.9539824718184054e+01 -1 -1 0
2173 444 2 -8.2999999999999996e-01 2.3234729794163851e+00 5.9406785201039529e+00 1.7467404461957599e+01 -1 4 0
3072 444 4 0.0000000000000000e+00 3.4729999999999999e+00 9.7467000000000006e+00 0.0000000000000000e+00 0 0 0
3073 444 4 0.0000000000000000e+00 3.4759699999999998e+00 9.7581900000000008e+00 3.5970300000000002e+00 0 0 0
3097 444 4 0.0000000000000000e+00 3.4729999999999999e+00 1.1563549999999999e+01 1.8169999999999999e+00 0 0 0
2842 444 2 -8.2999999999999996e-01 2.1254475310576617e+00 1.1433796545908985e+01 7.1474840016706018e+00 8 -1 0
2844 444 1 4.1499999999999998e-01 2.4761837303984726e+00 1.1137833071253496e+01 7.9874975796839669e+00 8 -1 0
930 444 1 4.1499999999999998e-01 3.9066012258438962e+00 1.0229244704706304e+01 6.5734378809040992e+00 6 0 0
2843 444 1 4.1499999999999998e-01 2.6099023221684337e+00 1.2236489419306489e+01 6.9545538074675770e+00 8 -1 0
803 444 1 4.1499999999999998e-01 3.0933195473428761e+00 1.1999326650588944e+01 1.3812441487553414e+01 -1 3 0
1189 444 2 -8.2999999999999996e-01 3.2097555302398981e+00 1.0144729804734926e+01 9.4406846267750311e+00 2 -4 0
1190 444 1 4.1499999999999998e-01 3.7877997640777883e+00 9.4253514583654638e+00 9.1865350249161324e+00 2 -4 0
604 444 2 -8.2999999999999996e-01 3.5529400951175365e+00 8.2076824747403023e+00 1.1945274907681251e+01 0 1 0
1191 444 1 4.1499999999999998e-01 3.6310252798444442e+00 1.0531355403461998e+01 1.0208333797784908e+01 2 -4 0
802 444 2 -8.2999999999999996e-01 4.0336025225044674e+00 1.2172032044930402e+01 1.3764768213842315e+01 -1 3 0
339 444 1 4.1499999999999998e-01 2.2979124837192790e+00 9.6481629537428564e+00 1.6677311072180341e+01 5 4 0
2221 444 2 -8.2999999999999996e-01 2.9293723794036532e+00 9.5866075145201552e+00 1.9998281827503696e+01 2 0 0
2223 444 1 4.1499999999999998e-01 2.3120410432576501e+00 1.0318065017331280e+01 1.9988090289330366e+01 2 0 0
337 444 2 -8.2999999999999996e-01 3.0406518017509234e+00 9.8596202269817947e+00 1.7242870279382664e+01 5 4 0
338 444 1 4.1499999999999998e-01 3.0040456044685406e+00 1.0811032809751962e+01 1.7341394604484357e+01 5 4 0
2222 444 1 4.1499999999999998e-01 3.1925516052770817e+00 9.4819323043601642e+00 1.9083945092937604e+01 2 0 0
3115 444 4 0.0000000000000000e+00 3.4729999999999999e+00 1.5197450000000000e+01 1.8169999999999999e+00 0 0 0
3121 444 4 0.0000000000000000e+00 3.4794499999999999e+00 1.3365620000000000e+01 3.5942300000000000e+00 0 0 0
3122 444 4 0.0000000000000000e+00 3.4729999999999999e+00 1.3380500000000000e+01 0.0000000000000000e+00 0 0 0
2986 444 2 -8.2999999999999996e-01 3.2489336737737511e+00 1.3995937227241312e+01 6.4065816367764450e+00 1 -1 0
2987 444 1 4.1499999999999998e-01 2.3011287406876981e+00 1.4099462212676038e+01 6.3218444099698399e+00 1 -1 0
2988 444 1 4.1499999999999998e-01 3.5672168537071633e+00 1.4871359976454418e+01 6.6269511226617777e+00 1 -1 0
764 444 1 4.1499999999999998e-01 3.2093767331103829e+00 1.5983725081354830e+01 1.5434759912971460e+01 3 2 0
922 444 2 -8.2999999999999996e-01 3.6211281892759195e+00 1.4370646112774409e+01 1.2439670111008036e+01 -2 0 0
765 444 1 4.1499999999999998e-01 3.7979222565967121e+00 1.5154118175481091e+01 1.4313482981810223e+01 3 2 0
924 444 1 4.1499999999999998e-01 2.9387646969313410e+00 1.4172460179756040e+01 1.1798316523484507e+01 -2 0 0
923 444 1 4.1499999999999998e-01 3.7797753665220792e+00 1.3538906537374807e+01 1.2886069392043165e+01 -2 0 0
763 444 2 -8.2999999999999996e-01 4.0100982018662172e+00 1.5533047181026326e+01 1.5166493260776907e+01 3 2 0
3001 444 2 -8.2999999999999996e-01 3.1724518713888448e+00 1.2490820208770058e+01 1.7540668338201897e+01 9 2 0
3003 444 1 4.1499999999999998e-01 2.2860479729330048e+00 1.2787235649762717e+01 1.7334130416263317e+01 9 2 0
3002 444 1 4.1499999999999998e-01 3.3111935360749256e+00 1.2762848247906064e+01 1.8447852859832672e+01 9 2 0
3111 444 4 0.0000000000000000e+00 3.4729999999999999e+00 1.7014299999999999e+01 0.0000000000000000e+00 0 0 0
3112 444 4 0.0000000000000000e+00 3.4727700000000001e+00 1.7009770000000000e+01 3.5898800000000000e+00 0 0 0
3135 444 4 0.0000000000000000e+00 3.4729999999999999e+00 1.8831250000000001e+01 1.8169999999999999e+00 0 0 0
1122 444 1 4.1499999999999998e-01 2.8030976306432818e+00 1.7639619623899698e+01 7.1523514194401523e+00 0 1 0
1310 444 1 4.1499999999999998e-01 2.8106058118291362e+00 1.9947587164134241e+01 1.5736304132107856e+01 2 2 0
597 444 1 4.1499999999999998e-01 3.8831107563262690e+00 1.6609002288747600e+01 1.2118064639615618e+01 2 0 0
2804 444 1 4.1499999999999998e-01 3.2307373683094411e+00 1.9940863378429416e+01 1.0207902220299477e+01 -3 -4 0
595 444 2 -8.2999999999999996e-01 3.6449113610648642e+00 1.7529133570942090e+01 1.2004699647672616e+01 2 0 0
596 444 1 4.1499999999999998e-01 3.9606437460855979e+00 1.7752651803519875e+01 1.1129151149186518e+01 2 0 0
1913 444 1 4.1499999999999998e-01 3.4805494139343462e+00 1.8774313604241868e+01 1.8337206460982028e+01 0 -1 0
1912 444 2 -8.2999999999999996e-01 3.3507331525873170e+00 1.8392543656099296e+01 1.7469086901342102e+01 0 -1 0
404 444 1 4.1499999999999998e-01 2.2281446716327675e+00 1.7451218484862309e+01 1.6667602776003438e+01 6 -6 0
3131 444 4 0.0000000000000000e+00 3.4729999999999999e+00 2.0648199999999999e+01 0.0000000000000000e+00 0 0 0
3132 444 4 0.0000000000000000e+00 3.4759699999999998e+00 2.0659690000000001e+01 3.5970300000000002e+00 0 0 0
3156 444 4 0.0000000000000000e+00 3.4729999999999999e+00 2.2465050000000002e+01 1.8169999999999999e+00 0 0 0
3180 444 4 0.0000000000000000e+00 3.4794499999999999e+00 2.4267119999999998e+01 3.5942300000000000e+00 0 0 0
3181 444 4 0.0000000000000000e+00 3.4729999999999999e+00 2.4282000000000000e+01 0.0000000000000000e+00 0 0 0
891 444 1 4.1499999999999998e-01 2.6954269543210883e+00 2.1100298647052462e+01 6.3091930620894621e+00 -2 -1 0
889 444 2 -8.2999999999999996e-01 3.6488663554741243e+00 2.1155416924711734e+01 6.3735923497268701e+00 -2 -1 0
890 444 1 4.1499999999999998e-01 3.8130237953673713e+00 2.2004771674219580e+01 6.7833250705528059e+00 -2 -1 0
2805 444 1 4.1499999999999998e-01 3.6459448706473396e+00 2.1101584016687834e+01 1.1086665963103714e+01 -3 -4 0
1963 444 2 -8.2999999999999996e-01 2.0719777400549670e+00 2.3812717902963470e+01 1.2024856675189721e+01 4 -2 0
2124 444 1 4.1499999999999998e-01 3.0769497436331106e+00 2.2281834587043598e+01 9.1868937436095095e+00 -1 0 0
2122 444 2 -8.2999999999999996e-01 3.0502916885090827e+00 2.3015744576021053e+01 8.5729740220424073e+00 -1 0 0
1309 444 2 -8.2999999999999996e-01 2.4554615524935768e+00 2.0769151855405436e+01 1.5396987016681724e+01 2 2 0
1275 444 1 4.1499999999999998e-01 3.8959041986113623e+00 2.2410613353045196e+01 1.5145625201447508e+01 0 1 0
1964 444 1 4.1499999999999998e-01 2.3593318417039084e+00 2.4523500317967251e+01 1.2597960932511130e+01 4 -2 0
2803 444 2 -8.2999999999999996e-01 3.1289103272128633e+00 2.0887119191116692e+01 1.0310191889733758e+01 -3 -4 0
2123 444 1 4.1499999999999998e-01 3.9671453306871540e+00 2.3173867421974506e+01 8.3480107516804267e+00 -1 0 0
2904 444 1 4.1499999999999998e-01 4.0216855333862735e+00 2.2122368740257723e+01 1.2802724947511084e+01 1 2 0
2786 444 1 4.1499999999999998e-01 3.8030571965140894e+00 2.3789546430953841e+01 1.9818983348502670e+01 2 0 0
2785 444 2 -8.2999999999999996e-01 3.6040247944882027e+00 2.3473212343376648e+01 1.8937762169439100e+01 2 0 0
1011 444 1 4.1499999999999998e-01 2.1070817497952405e+00 2.2821616277559155e+01 1.8026780157048567e+01 -5 -1 0
2787 444 1 4.1499999999999998e-01 3.9305352240251961e+00 2.4160239232761491e+01 1.8356714046956363e+01 2 0 0
1940 444 1 4.1499999999999998e-01 4.0781171408925703e+00 2.1735240174444559e+01 1.9069510763307559e+01 2 -2 0
1311 444 1 4.1499999999999998e-01 2.1524041372422422e+00 2.1238711431156716e+01 1.6174098998764325e+01 2 2 0
3170 444 4 0.0000000000000000e+00 3.4729999999999999e+00 2.7915800000000001e+01 0.0000000000000000e+00 0 0 0
3171 444 4 0.0000000000000000e+00 3.4727700000000001e+00 2.7911269999999998e+01 3.5898800000000000e+00 0 0 0
3174 444 4 0.0000000000000000e+00 3.4729999999999999e+00 2.6098949999999999e+01 1.8169999999999999e+00 0 0 0
1336 444 2 -8.2999999999999996e-01 3.2964512231040821e+00 2.5720088757133546e+01 7.3351042291035427e+00 2 2 0
1337 444 1 4.1499999999999998e-01 3.2095740540269579e+00 2.5342057186071418e+01 6.4600177488000039e+00 2 2 0
2654 444 1 4.1499999999999998e-01 2.4175640103566693e+00 2.7230374907900451e+01 7.2433719113840018e+00 -1 3 0
1653 444 1 4.1499999999999998e-01 3.4767261437835919e+00 2.6340308578894398e+01 1.4257926647322984e+01 3 4 0
1256 444 1 4.1499999999999998e-01 2.5365292376918309e+00 2.5391469960356481e+01 8.9131329291159513e+00 -2 5 0
2121 444 1 4.1499999999999998e-01 2.0568869252262467e+00 2.6608648044702523e+01 1.2913991775897767e+01 4 -1 0
1651 444 2 -8.2999999999999996e-01 3.0059461398340481e+00 2.5531330830173882e+01 1.4057544176823439e+01 3 4 0
1255 444 2 -8.2999999999999996e-01 2.3148978537139850e+00 2.5712754436258393e+01 9.7871396401687445e+00 -2 5 0
1652 444 1 4.1499999999999998e-01 3.5636822451470720e+00 2.4836266977593020e+01 1.4406898824145584e+01 3 4 0
2958 444 1 4.1499999999999998e-01 3.9876311830159525e+00 2.5280248311992498e+01 1.0213559323069154e+01 0 2 0
1257 444 1 4.1499999999999998e-01 2.4170139435681843e+00 2.6662571768449329e+01 9.7267125452658210e+00 -2 5 0
3190 444 4 0.0000000000000000e+00 3.4729999999999999e+00 3.1549700000000001e+01 0.0000000000000000e+00 0 0 0
3191 444 4 0.0000000000000000e+00 3.4759699999999998e+00 3.1561190000000000e+01 3.5970300000000002e+00 0 0 0
3194 444 4 0.0000000000000000e+00 3.4729999999999999e+00 2.9732749999999999e+01 1.8169999999999999e+00 0 0 0
2404 444 2 -8.2999999999999996e-01 3.0031940406825264e+00 3.0363029087577111e+01 6.5881791452843945e+00 -2 -2 0
2406 444 1 4.1499999999999998e-01 2.6019892573975731e+00 2.9494201458284451e+01 6.5680487088091262e+00 -2 -2 0
2405 444 1 4.1499999999999998e-01 3.9424117277268405e+00 3.0192097820196601e+01 6.6580691681541833e+00 -2 -2 0
830 444 1 4.1499999999999998e-01 3.5956010080713332e+00 3.2025349494058368e+01 7.3408393103726040e+00 -2 3 0
730 444 2 -8.2999999999999996e-01 2.2821828565050977e+00 2.9030704890049076e+01 9.6380744830586131e+00 -2 -2 0