LAMMPS data file via write_data, version 11 Aug 2017, timestep = 1000000

3549 atoms
12 atom types
2024 bonds
5 bond types
1018 angles
5 angle types
12 dihedrals
4 dihedral types
9 impropers
1 improper types

0.0000000000000000e+00 3.2704500000000003e+01 xlo xhi
0.0000000000000000e+00 3.2704500000000003e+01 ylo yhi
0.0000000000000000e+00 8.0000000000000000e+01 zlo zhi

Masses

1 1.0079
2 15.9994
3 39.0983
4 63.546
5 15.9994
6 12.011
7 1.0079
8 12.011
9 15.9994
10 15.9994
11 15.9994
12 1.0079

Bond Coeffs # harmonic

1 450 0.9572
2 570 1.229
3 450 1.364
4 570 1.229
5 553 0.945

Angle Coeffs # harmonic

1 100 123.32
2 85 124
3 55 104.52
4 35 113
5 100 123.32

Dihedral Coeffs # charmm

1 0.922 1 180 0
2 3.741 2 0 0
3 0.922 1 0 0
4 3.741 2 180 0

Improper Coeffs # umbrella

1 21 0

Atoms # full

3049 444 4 0.0000000000000000e+00 1.6560800000000000e+00 6.6800999999999999e-01 3.5942400000000001e+00 0 0 0
3051 444 4 0.0000000000000000e+00 1.6560500000000000e+00 2.4790000000000001e+00 1.8169999999999999e+00 0 0 0
3060 444 4 0.0000000000000000e+00 1.6560500000000000e+00 6.6205000000000003e-01 0.0000000000000000e+00 0 0 0
886 444 2 -8.2999999999999996e-01 4.1535656534056187e-01 1.7024221664145434e-01 6.7772212451655758e+00 5 1 0
1260 444 1 4.1499999999999998e-01 1.1463934334728545e+00 3.9871035759925619e+00 1.4477564289272024e+01 -3 2 0
8 444 1 4.1499999999999998e-01 2.2202596192029267e-01 1.8810529638335747e+00 1.3709295764202897e+01 2 2 0
1259 444 1 4.1499999999999998e-01 1.1572476228161683e+00 3.4301392266065500e+00 1.5885246703389395e+01 -3 2 0
223 444 2 -8.2999999999999996e-01 1.7431803469996230e+00 1.3383748238276427e-01 1.4053392407120281e+01 2 -2 0
1258 444 2 -8.2999999999999996e-01 5.6598844669616988e-01 3.7010565093090806e+00 1.5182929628468472e+01 -3 2 0
2597 444 1 4.1499999999999998e-01 4.7002209674798900e-01 2.8597687734393902e+00 1.0470509879798323e+01 0 1 0
1510 444 2 -8.2999999999999996e-01 1.9764887379693303e+00 2.3016190553677398e+00 1.0096681115244879e+01 2 2 0
225 444 1 4.1499999999999998e-01 1.5693236529829320e+00 2.5158871630395652e-02 1.4988376709523488e+01 2 -2 0
2915 444 1 4.1499999999999998e-01 8.6071533545111711e-01 1.7927894721058506e+00 1.7801128241187907e+01 6 0 0
2914 444 2 -8.2999999999999996e-01 3.1405929543109873e-01 1.0372738341376677e+00 1.8016988399268662e+01 6 0 0
1262 444 1 4.1499999999999998e-01 1.6169520970914650e+00 9.0362890079850000e-01 1.9961601048037032e+01 0 1 0
500 444 1 4.1499999999999998e-01 1.9631047806613748e+00 4.0433464273423105e+00 1.7499042931813278e+01 4 1 0
2916 444 1 4.1499999999999998e-01 7.6296338246576412e-01 2.9355930261639296e-01 1.7614985148174199e+01 6 0 0
3066 444 4 0.0000000000000000e+00 1.6560500000000000e+00 4.2959500000000004e+00 0.0000000000000000e+00 0 0 0
3067 444 4 0.0000000000000000e+00 1.6729900000000000e+00 4.2774599999999996e+00 3.5756199999999998e+00 0 0 0
3069 444 4 0.0000000000000000e+00 1.6560500000000000e+00 6.1128000000000000e+00 1.8169999999999999e+00 0 0 0
3086 444 4 0.0000000000000000e+00 1.6560500000000000e+00 7.9297500000000003e+00 0.0000000000000000e+00 0 0 0
3087 444 4 0.0000000000000000e+00 1.6946699999999999e+00 7.9631800000000004e+00 3.5758100000000002e+00 0 0 0
2754 444 1 4.1499999999999998e-01 1.7752230840423406e+00 6.3202684901351436e+00 6.2354072173806836e+00 2 0 0
2752 444 2 -8.2999999999999996e-01 1.5965862344914612e+00 7.1797085269498560e+00 6.6170923779477464e+00 2 0 0
2753 444 1 4.1499999999999998e-01 1.3655689113551470e+00 6.9947060078722920e+00 7.5273873615736484e+00 2 0 0
384 444 1 4.1499999999999998e-01 8.6781752307358040e-01 4.3854821208214991e+00 7.1958608510836966e+00 0 4 0
3034 444 8 1.0800000000000001e+00 3.7134327744720219e-01 6.4993344062772334e+00 1.0042235584322903e+01 3 -1 0
3038 444 12 3.5999999999999999e-01 7.6730544018381408e-01 7.2258185291713000e+00 1.1851066746442543e+01 3 -1 0
3035 444 9 -8.5999999999999999e-01 1.1741353869254880e+00 6.8590740181738967e+00 9.1884288486312968e+00 3 -1 0
3037 444 11 -7.8000000000000003e-01 6.3438147733810302e-01 6.4225011662947882e+00 1.1384834660721339e+01 3 -1 0
2638 444 2 -8.2999999999999996e-01 1.7377338270630172e+00 4.5399791155608646e+00 1.3001433903487733e+01 3 -4 0
2640 444 1 4.1499999999999998e-01 1.1621621842753136e+00 5.1393000833824640e+00 1.2526286960300537e+01 3 -4 0
1278 444 1 4.1499999999999998e-01 1.8325500347237633e+00 5.6288903733101030e+00 1.9494900607404094e+01 -1 -1 0
2410 444 2 -8.2999999999999996e-01 1.3831381670088327e-01 7.2006367833775187e+00 1.6911447572533824e+01 5 -1 0
1276 444 2 -8.2999999999999996e-01 1.6371222237528844e+00 5.4617823825665521e+00 1.8572883628590585e+01 -1 -1 0
1277 444 1 4.1499999999999998e-01 1.2864037332467428e+00 6.2909658924606369e+00 1.8247793562363629e+01 -1 -1 0
2411 444 1 4.1499999999999998e-01 7.8537375339658122e-01 7.8991474159463033e+00 1.6813320052634996e+01 5 -1 0
3089 444 4 0.0000000000000000e+00 1.6560500000000000e+00 9.7467000000000006e+00 1.8169999999999999e+00 0 0 0
3106 444 4 0.0000000000000000e+00 1.6560800000000000e+00 1.1569509999999999e+01 3.5942400000000001e+00 0 0 0
3117 444 4 0.0000000000000000e+00 1.6560500000000000e+00 1.1563549999999999e+01 0.0000000000000000e+00 0 0 0
2273 444 1 4.1499999999999998e-01 8.6021822617082111e-01 9.9520300612446118e+00 6.3678075491690498e+00 6 -2 0
2274 444 1 4.1499999999999998e-01 4.7126882110162649e-01 8.4944570094977987e+00 6.2409436401551996e+00 6 -2 0
2614 444 2 -8.2999999999999996e-01 1.9148442961767229e+00 1.1079304224611310e+01 7.0567210224675128e+00 1 -2 0
2272 444 2 -8.2999999999999996e-01 1.0438346250830349e-01 9.3785537352145933e+00 6.2410375752187770e+00 6 -2 0
97 444 2 -8.2999999999999996e-01 1.7228173759799461e+00 1.0682865604255596e+01 1.4268324082949153e+01 0 0 0
1619 444 1 4.1499999999999998e-01 7.0045815589411897e-01 9.3840421096597257e+00 1.3044602637448486e+01 3 1 0
99 444 1 4.1499999999999998e-01 1.6042203279668903e+00 1.0480932243120378e+01 1.5196435535249787e+01 0 0 0
1526 444 1 4.1499999999999998e-01 3.2771449063345381e-01 1.1950298507696958e+01 1.4443902707757532e+01 6 2 0
1191 444 1 4.1499999999999998e-01 2.7229829299571828e-01 9.9713616637007920e+00 1.0726803409078091e+01 0 7 0
1985 444 1 4.1499999999999998e-01 1.0849598788640713e+00 1.1898003825064270e+01 1.1067971859935970e+01 -2 1 0
1189 444 2 -8.2999999999999996e-01 9.3835832705163058e-01 1.0371348628712868e+01 1.0167690907030744e+01 0 7 0
1618 444 2 -8.2999999999999996e-01 6.9143750583357588e-02 8.7839269976286314e+00 1.2647693995134299e+01 3 1 0
1190 444 1 4.1499999999999998e-01 4.5543535540379737e-01 1.0675872833135438e+01 9.3993922825391927e+00 0 7 0
124 444 2 -8.2999999999999996e-01 1.4827582159781292e+00 9.8768247266770377e+00 1.6814665683531189e+01 -2 -5 0
126 444 1 4.1499999999999998e-01 6.0772832301490021e-01 1.0136396280681828e+01 1.7103070377357895e+01 -2 -5 0
3108 444 4 0.0000000000000000e+00 1.6560500000000000e+00 1.3380500000000000e+01 1.8169999999999999e+00 0 0 0
3123 444 4 0.0000000000000000e+00 1.6560500000000000e+00 1.5197450000000000e+01 0.0000000000000000e+00 0 0 0
3124 444 4 0.0000000000000000e+00 1.6729900000000000e+00 1.5178960000000000e+01 3.5756199999999998e+00 0 0 0
655 444 2 -8.2999999999999996e-01 1.7447312294938333e-01 1.3996250072971343e+01 6.1510257991787531e+00 -2 -1 0
656 444 1 4.1499999999999998e-01 6.1716628911622962e-01 1.4809463261731020e+01 5.9082517414422169e+00 -2 -1 0
657 444 1 4.1499999999999998e-01 8.7156557537112933e-01 1.3340624910072291e+01 6.1722409095568977e+00 -2 -1 0
2171 444 1 4.1499999999999998e-01 1.6993467961621596e+00 1.5788640922484269e+01 7.4757457254494986e+00 -4 -4 0
1984 444 2 -8.2999999999999996e-01 1.4179084501154577e+00 1.2727124027081675e+01 1.1411391172789052e+01 -2 1 0
260 444 1 4.1499999999999998e-01 1.7367592624299746e-01 1.3971842883663690e+01 1.3899339317803866e+01 5 -1 0
259 444 2 -8.2999999999999996e-01 8.3126727117926114e-01 1.4408432816049000e+01 1.3357864748008650e+01 5 -1 0
261 444 1 4.1499999999999998e-01 1.0564862628504961e+00 1.3763631890050853e+01 1.2687238111026051e+01 5 -1 0
1989 444 1 4.1499999999999998e-01 3.4186191920590686e-01 1.6242289945418364e+01 1.1998122014397197e+01 -2 -1 0
1705 444 2 -8.2999999999999996e-01 2.8497938194955408e-01 1.5221211936275825e+01 1.9738461637756156e+01 5 1 0
267 444 1 4.1499999999999998e-01 1.2733069849484027e+00 1.5640464469952269e+01 1.6917450462157284e+01 -7 1 0
1706 444 1 4.1499999999999998e-01 7.2442820620683990e-01 1.5720341686576278e+01 1.9049993873112850e+01 5 1 0
265 444 2 -8.2999999999999996e-01 9.9399564842258137e-01 1.6326527763419936e+01 1.7523697339214483e+01 -7 1 0
2953 444 2 -8.2999999999999996e-01 2.0412671721753664e+00 1.4084351331090634e+01 1.6508496991394331e+01 3 0 0
3126 444 4 0.0000000000000000e+00 1.6560500000000000e+00 1.7014299999999999e+01 1.8169999999999999e+00 0 0 0
3143 444 4 0.0000000000000000e+00 1.6560500000000000e+00 1.8831250000000001e+01 0.0000000000000000e+00 0 0 0
3144 444 4 0.0000000000000000e+00 1.6946699999999999e+00 1.8864680000000000e+01 3.5758100000000002e+00 0 0 0
512 444 1 4.1499999999999998e-01 2.4121673331993240e-01 2.0067793323476199e+01 7.0513430902610725e+00 0 3 0
2170 444 2 -8.2999999999999996e-01 1.4639486733478162e+00 1.6457957918450436e+01 6.8332238149449829e+00 -4 -4 0
2172 444 1 4.1499999999999998e-01 9.9573931397938098e-01 1.7122116918239872e+01 7.3390940898022494e+00 -4 -4 0
2323 444 2 -8.2999999999999996e-01 1.8913352113120858e+00 2.0219795139917011e+01 7.2190802371123306e+00 1 -4 0
479 444 1 4.1499999999999998e-01 1.3096275559043300e+00 1.8987608915423074e+01 1.2178698584074798e+01 1 6 0
462 444 1 4.1499999999999998e-01 1.5173454788798322e+00 1.7574847788109938e+01 9.0802577245042730e+00 -1 0 0
460 444 2 -8.2999999999999996e-01 5.9598327525039085e-01 1.7827877629646895e+01 9.0228166392107934e+00 -1 0 0
982 444 2 -8.2999999999999996e-01 1.6999022641400757e-01 1.9670159179015059e+01 1.5387438552275741e+01 -3 3 0
461 444 1 4.1499999999999998e-01 2.1780756648516097e-01 1.7547910147264766e+01 9.8563832291765348e+00 -1 0 0
2324 444 1 4.1499999999999998e-01 1.8155645022567866e+00 1.9794589038818607e+01 8.0732996742796104e+00 1 -4 0
1115 444 1 4.1499999999999998e-01 1.8277679985664870e+00 1.8705192822808584e+01 1.5586644726708831e+01 -1 -1 0
266 444 1 4.1499999999999998e-01 1.6073968011833024e+00 1.7045451610072959e+01 1.7371643111905513e+01 -7 1 0
3001 444 2 -8.2999999999999996e-01 1.6167267753653785e+00 1.9471241003522383e+01 1.9789002454075540e+01 -3 -3 0
3146 444 4 0.0000000000000000e+00 1.6560500000000000e+00 2.0648199999999999e+01 1.8169999999999999e+00 0 0 0
3163 444 4 0.0000000000000000e+00 1.6560800000000000e+00 2.2471010000000000e+01 3.5942400000000001e+00 0 0 0
3165 444 4 0.0000000000000000e+00 1.6560500000000000e+00 2.4282000000000000e+01 1.8169999999999999e+00 0 0 0
3174 444 4 0.0000000000000000e+00 1.6560500000000000e+00 2.2465050000000002e+01 0.0000000000000000e+00 0 0 0
2850 444 1 4.1499999999999998e-01 1.3686680382591185e+00 2.3178539037585601e+01 6.9216452697792565e+00 1 -4 0
2325 444 1 4.1499999999999998e-01 2.0056894395733758e+00 2.1148135008454538e+01 7.4224063285654500e+00 1 -4 0
155 444 1 4.1499999999999998e-01 4.9606581307288466e-01 2.3355425584137311e+01 1.1779321012581374e+01 1 1 0
156 444 1 4.1499999999999998e-01 1.0272554431183276e+00 2.2760959601156021e+01 1.3066310923392491e+01 1 1 0
154 444 2 -8.2999999999999996e-01 2.1716658099737723e-01 2.3037855955027830e+01 1.2638155842649409e+01 1 1 0
652 444 2 -8.2999999999999996e-01 1.6233078785491872e+00 2.2656248156441194e+01 1.0271549578273227e+01 -2 -2 0
6 444 1 4.1499999999999998e-01 1.4932165405459319e+00 2.3755261935289656e+01 1.7603781700722500e+01 0 -3 0
4 444 2 -8.2999999999999996e-01 5.6340310992750908e-01 2.3885547025340003e+01 1.7790075257643917e+01 0 -3 0
758 444 1 4.1499999999999998e-01 1.5987001596033323e+00 2.1943129113153713e+01 1.7698003940022318e+01 1 2 0
3180 444 4 0.0000000000000000e+00 1.6560500000000000e+00 2.6098949999999999e+01 0.0000000000000000e+00 0 0 0
3181 444 4 0.0000000000000000e+00 1.6729900000000000e+00 2.6080459999999999e+01 3.5756199999999998e+00 0 0 0
3183 444 4 0.0000000000000000e+00 1.6560500000000000e+00 2.7915800000000001e+01 1.8169999999999999e+00 0 0 0
910 444 2 -8.2999999999999996e-01 1.3977048174837652e+00 2.6659162291607295e+01 6.7400892754720818e+00 7 2 0
911 444 1 4.1499999999999998e-01 5.3201021921468761e-01 2.6603382710140430e+01 7.1446800166025541e+00 7 2 0
912 444 1 4.1499999999999998e-01 1.5435111185657187e+00 2.5790848620605743e+01 6.3645841293704040e+00 7 2 0
2185 444 2 -8.2999999999999996e-01 6.1146268235845613e-01 2.7763614777938479e+01 1.4196419850069725e+01 1 -1 0
2186 444 1 4.1499999999999998e-01 1.3707467412623902e+00 2.7205080057448729e+01 1.4363028837179076e+01 1 -1 0
2642 444 1 4.1499999999999998e-01 4.3831574574012899e-01 2.6399957543155512e+01 1.1424889212269546e+01 1 0 0
2187 444 1 4.1499999999999998e-01 2.5034167207663177e-01 2.7438032911395833e+01 1.3371907922219963e+01 1 -1 0
5 444 1 4.1499999999999998e-01 4.5057935242732372e-01 2.4836060400851558e+01 1.7795295813627970e+01 0 -3 0
3200 444 4 0.0000000000000000e+00 1.6560500000000000e+00 2.9732749999999999e+01 0.0000000000000000e+00 0 0 0
3201 444 4 0.0000000000000000e+00 1.6946699999999999e+00 2.9766179999999999e+01 3.5758100000000002e+00 0 0 0
3203 444 4 0.0000000000000000e+00 1.6560500000000000e+00 3.1549700000000001e+01 1.8169999999999999e+00 0 0 0
3016 444 2 -8.2999999999999996e-01 1.0179402777199116e+00 3.0209449575149730e+01 6.7215551950392083e+00 1 0 0
3017 444 1 4.1499999999999998e-01 1.5950036711480857e+00 2.9497182951980715e+01 6.4460441680795428e+00 1 0 0
887 444 1 4.1499999999999998e-01 6.6547699790397519e-01 3.1976827973723683e+01 6.5594557957082760e+00 5 0 0
3018 444 1 4.1499999999999998e-01 4.4819467213137665e-01 2.9814956903924436e+01 7.3818562293400278e+00 1 0 0
2448 444 1 4.1499999999999998e-01 1.7685396814303819e-01 2.9691438312156684e+01 1.0217854054853804e+01 1 1 0
1023 444 1 4.1499999999999998e-01 1.2284732426691267e+00 3.2155932000569187e+01 1.1098516688815405e+01 1 -5 0
906 444 1 4.1499999999999998e-01 1.3719103317490671e+00 2.9345510768776904e+01 1.3572177484293681e+01 0 -3 0
2446 444 2 -8.2999999999999996e-01 3.9167684688063592e-01 2.8855128878189291e+01 9.8047322371580119e+00 1 1 0
2771 444 1 4.1499999999999998e-01 4.9979477409195461e-01 2.8894500967182495e+01 1.5804298499775655e+01 4 -2 0
904 444 2 -8.2999999999999996e-01 1.9257939496114380e+00 2.9919116445230287e+01 1.3042628827059360e+01 0 -3 0
2447 444 1 4.1499999999999998e-01 1.3460004727776294e+00 2.8862056932841764e+01 9.7309060138813095e+00 1 1 0
224 444 1 4.1499999999999998e-01 9.0498070741961334e-01 3.2652367673734112e+01 1.3630227234136946e+01 2 -3 0
2557 444 2 -8.2999999999999996e-01 1.8546655395005751e-01 2.9940110051588842e+01 1.9153499767424449e+01 0 -4 0
2559 444 1 4.1499999999999998e-01 1.0286693426018250e+00 3.0049061954541209e+01 1.9593239334731102e+01 0 -4 0
2405 444 1 4.1499999999999998e-01 9.4036269289119945e-01 3.0936095804675332e+01 1.6639229432370559e+01 2 -1 0
2558 444 1 4.1499999999999998e-01 4.1168105356834556e-01 2.9775954593799106e+01 1.8238014835526180e+01 0 -4 0
2770 444 2 -8.2999999999999996e-01 4.8629589683916008e-01 2.9044363637100073e+01 1.6749598441342112e+01 4 -2 0
2404 444 2 -8.2999999999999996e-01 1.2720778899776239e+00 3.1822598130910702e+01 1.6496712067653476e+01 2 -1 0
3050 444 4 0.0000000000000000e+00 3.4729999999999999e+00 6.6205000000000003e-01 1.8169999999999999e+00 0 0 0
3074 444 4 0.0000000000000000e+00 3.4723199999999999e+00 2.4622700000000002e+00 3.5924800000000001e+00 0 0 0
3075 444 4 0.0000000000000000e+00 3.4729999999999999e+00 2.4790000000000001e+00 0.0000000000000000e+00 0 0 0
898 444 2 -8.2999999999999996e-01 2.6825112263061750e+00 1.8234763540203496e+00 7.0898945664454978e+00 1 3 0
1791 444 1 4.1499999999999998e-01 2.4713211856070925e+00 3.6685948044245942e+00 6.6886984222283692e+00 0 3 0
899 444 1 4.1499999999999998e-01 2.0885174835480695e+00 2.0808233153711742e+00 7.7950020732466374e+00 1 3 0
900 444 1 4.1499999999999998e-01 2.1934867355840630e+00 1.1691417818512915e+00 6.5909616014510979e+00 1 3 0
1512 444 1 4.1499999999999998e-01 2.8730179532202014e+00 2.6369788426403358e+00 1.0097716182189872e+01 2 2 0
2294 444 1 4.1499999999999998e-01 3.2464580985916629e+00 9.6798819087629995e-01 1.3641278799664889e+01 1 4 0
1025 444 1 4.1499999999999998e-01 2.3558880135189941e+00 5.8072693158724653e-02 1.1906488379058512e+01 1 -4 0
1511 444 1 4.1499999999999998e-01 2.0650094928387199e+00 1.3792494947895784e+00 1.0336744378874799e+01 2 2 0
499 444 2 -8.2999999999999996e-01 2.1356990520707728e+00 3.1514516746478716e+00 1.7197435484775369e+01 4 1 0
501 444 1 4.1499999999999998e-01 2.9567669971382653e+00 2.9081625711917236e+00 1.7625091615656746e+01 4 1 0
3064 444 4 0.0000000000000000e+00 3.4729999999999999e+00 6.1128000000000000e+00 0.0000000000000000e+00 0 0 0
3065 444 4 0.0000000000000000e+00 3.4771700000000001e+00 6.1156199999999998e+00 3.5872600000000001e+00 0 0 0
3068 444 4 0.0000000000000000e+00 3.4729999999999999e+00 4.2959500000000004e+00 1.8169999999999999e+00 0 0 0
3088 444 4 0.0000000000000000e+00 3.4729999999999999e+00 7.9297500000000003e+00 1.8169999999999999e+00 0 0 0
1789 444 2 -8.2999999999999996e-01 2.3324029721816708e+00 4.6144756517288643e+00 6.7360656076850889e+00 0 3 0
1790 444 1 4.1499999999999998e-01 3.1099196328616108e+00 4.9491470732797378e+00 7.1829386096976391e+00 0 3 0
39 444 1 4.1499999999999998e-01 2.9125139391167543e+00 5.9435636617500220e+00 9.1782790526570128e+00 5 0 0
37 444 2 -8.2999999999999996e-01 3.7875057889252077e+00 6.0248821298663771e+00 8.7987938984041527e+00 5 0 0
2639 444 1 4.1499999999999998e-01 2.6153686147423492e+00 4.7428473983223620e+00 1.2677653220582386e+01 3 -4 0
2265 444 1 4.1499999999999998e-01 3.1905499242068820e+00 7.8495559212533195e+00 1.1500269010313954e+01 1 5 0
1398 444 1 4.1499999999999998e-01 2.3758486122388920e+00 8.0051952022969139e+00 9.4648015157329297e+00 -3 3 0
2263 444 2 -8.2999999999999996e-01 3.6678040199993798e+00 7.2699797302428353e+00 1.2094029893545493e+01 1 5 0
2264 444 1 4.1499999999999998e-01 3.6197346848483538e+00 6.4088022698949567e+00 1.1678945165363535e+01 1 5 0
2160 444 1 4.1499999999999998e-01 3.0498516432848453e+00 6.2749980096150342e+00 1.8002169186710354e+01 -4 0 0
2158 444 2 -8.2999999999999996e-01 3.4547604175128961e+00 6.7194117084981730e+00 1.7257335172397198e+01 -4 0 0
2159 444 1 4.1499999999999998e-01 3.7461483551056967e+00 6.0102833608374002e+00 1.6684219107377345e+01 -4 0 0
3084 444 4 0.0000000000000000e+00 3.4729999999999999e+00 9.7467000000000006e+00 0.0000000000000000e+00 0 0 0
3085 444 4 0.0000000000000000e+00 3.4878499999999999e+00 9.7603799999999996e+00 3.5966700000000000e+00 0 0 0
3107 444 4 0.0000000000000000e+00 3.4729999999999999e+00 1.1563549999999999e+01 1.8169999999999999e+00 0 0 0
2616 444 1 4.1499999999999998e-01 2.6555733714119811e+00 1.0551653120948213e+01 7.3552786316189369e+00 1 -2 0
2615 444 1 4.1499999999999998e-01 2.3110867127725028e+00 1.1889520758907578e+01 6.7361386199883864e+00 1 -2 0
1084 444 2 -8.2999999999999996e-01 4.0502929018720906e+00 9.5769087862328419e+00 7.6143445423323932e+00 2 0 0
1086 444 1 4.1499999999999998e-01 4.0803237741008038e+00 8.8478418964587675e+00 6.9948354081716788e+00 2 0 0
1085 444 1 4.1499999999999998e-01 3.6808777810242579e+00 9.1987241797014452e+00 8.4123049469541993e+00 2 0 0
1396 444 2 -8.2999999999999996e-01 2.9100351752643734e+00 8.7314980510887388e+00 9.7862993523998263e+00 -3 3 0
2981 444 1 4.1499999999999998e-01 3.9501439407896934e+00 1.1835265162780637e+01 1.0206545975710105e+01 0 0 0
98 444 1 4.1499999999999998e-01 2.6041634525855675e+00 1.1052311586477410e+01 1.4213818986668338e+01 0 0 0
1397 444 1 4.1499999999999998e-01 2.2766747923850801e+00 9.4097879109541971e+00 1.0020840268854050e+01 -3 3 0
52 444 2 -8.2999999999999996e-01 3.6220379353441197e+00 1.1903299113588535e+01 1.7498578702723975e+01 3 2 0
125 444 1 4.1499999999999998e-01 2.0769948313443778e+00 1.0333193528209792e+01 1.7410352035002219e+01 -2 -5 0
24 444 1 4.1499999999999998e-01 3.9599540870848071e+00 8.6193775937322563e+00 1.7556102624900600e+01 2 0 0
2282 444 1 4.1499999999999998e-01 4.0500697141456934e+00 1.2158006634078262e+01 1.9947670415687242e+01 0 3 0
53 444 1 4.1499999999999998e-01 4.0552079347384682e+00 1.1111504827161452e+01 1.7817416427920733e+01 3 2 0
2283 444 1 4.1499999999999998e-01 2.6320321214564388e+00 1.1965170429767396e+01 1.9453829410088876e+01 0 3 0
3125 444 4 0.0000000000000000e+00 3.4729999999999999e+00 1.5197450000000000e+01 1.8169999999999999e+00 0 0 0
3131 444 4 0.0000000000000000e+00 3.4723199999999999e+00 1.3363770000000001e+01 3.5924800000000001e+00 0 0 0
3132 444 4 0.0000000000000000e+00 3.4729999999999999e+00 1.3380500000000000e+01 0.0000000000000000e+00 0 0 0
2689 444 2 -8.2999999999999996e-01 2.8428140904580519e+00 1.3285612285167424e+01 6.3954767144540048e+00 1 2 0
2691 444 1 4.1499999999999998e-01 2.5137256126046306e+00 1.3947349755238690e+01 7.0037826968272938e+00 1 2 0
2690 444 1 4.1499999999999998e-01 3.7903245079453121e+00 1.3284797201309839e+01 6.5313267468034910e+00 1 2 0
968 444 1 4.1499999999999998e-01 3.4149579695386896e+00 1.5425984020389153e+01 8.5291322160466390e+00 3 -1 0
679 444 2 -8.2999999999999996e-01 3.9597139422537597e+00 1.4060563801896583e+01 1.4138815184912788e+01 -2 3 0
2980 444 2 -8.2999999999999996e-01 3.8130857636868427e+00 1.2717701572377413e+01 9.8619405432592586e+00 0 0 0
967 444 2 -8.2999999999999996e-01 2.6370244636504792e+00 1.4868760553187808e+01 8.5526721884235108e+00 3 -1 0
969 444 1 4.1499999999999998e-01 2.8957640786527490e+00 1.4117857876167728e+01 9.0869306788330881e+00 3 -1 0
639 444 1 4.1499999999999998e-01 2.2001827397591356e+00 1.5629803713111956e+01 1.3652002058181077e+01 4 0 0
1413 444 1 4.1499999999999998e-01 4.0663004494473478e+00 1.5753404164514563e+01 1.1633853114205543e+01 3 -5 0
680 444 1 4.1499999999999998e-01 3.2973050722839803e+00 1.3975621714080097e+01 1.4824549269568223e+01 -2 3 0
1986 444 1 4.1499999999999998e-01 2.1983046718976351e+00 1.2907833262151346e+01 1.0887408555295575e+01 -2 1 0
681 444 1 4.1499999999999998e-01 4.0089431234143955e+00 1.3190171306006352e+01 1.3743561692866832e+01 -2 3 0
2954 444 1 4.1499999999999998e-01 2.1257547026694787e+00 1.3150921256109648e+01 1.6702924467253869e+01 3 0 0
2955 444 1 4.1499999999999998e-01 2.6711899878091159e+00 1.4508792130404203e+01 1.7090973772931157e+01 3 0 0
3121 444 4 0.0000000000000000e+00 3.4729999999999999e+00 1.7014299999999999e+01 0.0000000000000000e+00 0 0 0
3122 444 4 0.0000000000000000e+00 3.4771700000000001e+00 1.7017119999999998e+01 3.5872600000000001e+00 0 0 0
3145 444 4 0.0000000000000000e+00 3.4729999999999999e+00 1.8831250000000001e+01 1.8169999999999999e+00 0 0 0
2738 444 1 4.1499999999999998e-01 2.9151355460547399e+00 1.9039672286251349e+01 6.3066449307669004e+00 0 -1 0
2737 444 2 -8.2999999999999996e-01 3.3289587783294246e+00 1.8198522009149684e+01 6.1131287442972031e+00 0 -1 0
2739 444 1 4.1499999999999998e-01 2.6667656624906826e+00 1.7546729987421383e+01 6.3431272709058497e+00 0 -1 0
2856 444 1 4.1499999999999998e-01 3.6730613510680281e+00 1.8135835054199010e+01 9.9926597152315040e+00 2 0 0
637 444 2 -8.2999999999999996e-01 2.4327859377956411e+00 1.6541626842057969e+01 1.3476768157823706e+01 4 0 0
1116 444 1 4.1499999999999998e-01 3.3304971871640188e+00 1.8587747983184276e+01 1.5445552739133509e+01 -1 -1 0
1114 444 2 -8.2999999999999996e-01 2.5646972700300066e+00 1.8129971834754510e+01 1.5792285146648805e+01 -1 -1 0
2854 444 2 -8.2999999999999996e-01 3.3315192438348471e+00 1.8070032465586415e+01 9.1008905201525625e+00 2 0 0
638 444 1 4.1499999999999998e-01 2.5375229859364783e+00 1.6933462527416189e+01 1.4343790338961339e+01 4 0 0
1329 444 1 4.1499999999999998e-01 3.8275777643840039e+00 1.9936976598709055e+01 1.3630793893127207e+01 4 1 0
478 444 2 -8.2999999999999996e-01 2.2050560367078025e+00 1.8875104384777924e+01 1.2497732184966212e+01 1 6 0
45 444 1 4.1499999999999998e-01 2.7395974517169166e+00 2.0132787523735022e+01 1.1428692543735353e+01 1 0 0
480 444 1 4.1499999999999998e-01 2.2592283370396995e+00 1.7950577236962658e+01 1.2739696736145076e+01 1 6 0
3141 444 4 0.0000000000000000e+00 3.4729999999999999e+00 2.0648199999999999e+01 0.0000000000000000e+00 0 0 0
3142 444 4 0.0000000000000000e+00 3.4878499999999999e+00 2.0661880000000000e+01 3.5966700000000000e+00 0 0 0
3164 444 4 0.0000000000000000e+00 3.4729999999999999e+00 2.2465050000000002e+01 1.8169999999999999e+00 0 0 0
3188 444 4 0.0000000000000000e+00 3.4723199999999999e+00 2.4265270000000001e+01 3.5924800000000001e+00 0 0 0
3189 444 4 0.0000000000000000e+00 3.4729999999999999e+00 2.4282000000000000e+01 0.0000000000000000e+00 0 0 0
2849 444 1 4.1499999999999998e-01 2.8374242501031577e+00 2.3544092709929540e+01 6.9535977415210333e+00 1 -4 0
2848 444 2 -8.2999999999999996e-01 2.2036923533723400e+00 2.2924005022018893e+01 7.3143012678835184e+00 1 -4 0
879 444 1 4.1499999999999998e-01 3.3958495940484847e+00 2.2079437318862784e+01 1.4183554559729648e+01 1 -3 0
878 444 1 4.1499999999999998e-01 3.4030456770795277e+00 2.3172768724912725e+01 1.3136429966374008e+01 1 -3 0
654 444 1 4.1499999999999998e-01 2.0889364775617225e+00 2.2888862734354575e+01 9.4682362102566398e+00 -2 -2 0
43 444 2 -8.2999999999999996e-01 3.2946854495268152e+00 2.0879011975667460e+01 1.1202289564303122e+01 1 0 0
44 444 1 4.1499999999999998e-01 3.4222608687772866e+00 2.1342997421069523e+01 1.2029739965706197e+01 1 0 0
892 444 2 -8.2999999999999996e-01 3.9481885154649632e+00 2.2034572064794375e+01 1.5785477419782490e+01 -1 -4 0
877 444 2 -8.2999999999999996e-01 3.0960746549848448e+00 2.2280460534398532e+01 1.3297012629978365e+01 1 -3 0
653 444 1 4.1499999999999998e-01 2.2221281878704273e+00 2.2070759527174545e+01 1.0735067835025104e+01 -2 -2 0
894 444 1 4.1499999999999998e-01 3.4023285580178650e+00 2.1758893539848938e+01 1.6521867351767227e+01 -1 -4 0
2254 444 2 -8.2999999999999996e-01 3.4868934756996444e+00 2.4349674817644523e+01 1.7637952976255690e+01 1 -1 0
757 444 2 -8.2999999999999996e-01 2.4431349816005055e+00 2.1652891064009548e+01 1.8042857665257980e+01 1 2 0
759 444 1 4.1499999999999998e-01 2.2212904931498123e+00 2.0977189292373559e+01 1.8683517427126379e+01 1 2 0
1859 444 1 4.1499999999999998e-01 3.8859374403403666e+00 2.1335433336587581e+01 1.9948170799164544e+01 -3 -5 0
3178 444 4 0.0000000000000000e+00 3.4729999999999999e+00 2.7915800000000001e+01 0.0000000000000000e+00 0 0 0
3179 444 4 0.0000000000000000e+00 3.4771700000000001e+00 2.7918620000000001e+01 3.5872600000000001e+00 0 0 0
3182 444 4 0.0000000000000000e+00 3.4729999999999999e+00 2.6098949999999999e+01 1.8169999999999999e+00 0 0 0
2275 444 2 -8.2999999999999996e-01 3.1464887246030662e+00 2.8594188971550604e+01 6.6908604415714326e+00 1 1 0
2276 444 1 4.1499999999999998e-01 2.4061529102330317e+00 2.7992025306857084e+01 6.6164709841693403e+00 1 1 0
1168 444 2 -8.2999999999999996e-01 3.9525164471457326e+00 2.4810012057367665e+01 6.5136806053867948e+00 1 1 0
2277 444 1 4.1499999999999998e-01 3.8927397264048698e+00 2.8032364222272918e+01 6.8998923498317177e+00 1 1 0
2496 444 1 4.1499999999999998e-01 2.5073706785054650e+00 2.5541253567180739e+01 1.0921167276169863e+01 4 1 0
544 444 2 -8.2999999999999996e-01 2.6450849021217695e+00 2.6062257447757716e+01 1.4735882735024603e+01 3 0 0
2308 444 2 -8.2999999999999996e-01 2.8480842822190673e+00 2.8343431229228532e+01 1.0755348805536029e+01 1 5 0
546 444 1 4.1499999999999998e-01 2.2665973658686180e+00 2.5315874946424231e+01 1.5200524970246592e+01 3 0 0
2309 444 1 4.1499999999999998e-01 2.7102603593282959e+00 2.7446518884444345e+01 1.1059956247837420e+01 1 5 0
545 444 1 4.1499999999999998e-01 3.2773027328938316e+00 2.6432797307149549e+01 1.5351702065181206e+01 3 0 0
2495 444 1 4.1499999999999998e-01 2.7835136343525213e+00 2.5682263543430174e+01 1.2402975802362509e+01 4 1 0
2494 444 2 -8.2999999999999996e-01 2.2103535549839579e+00 2.6001658441581977e+01 1.1706049471961640e+01 4 1 0
118 444 2 -8.2999999999999996e-01 3.5570376418579879e+00 2.4858706939437127e+01 9.7063041623278501e+00 1 -1 0
119 444 1 4.1499999999999998e-01 3.4276712627721602e+00 2.4567277281784872e+01 8.8037715303090849e+00 1 -1 0
2310 444 1 4.1499999999999998e-01 3.6059180367084531e+00 2.8285486432066111e+01 1.0173487273603252e+01 1 5 0
921 444 1 4.1499999999999998e-01 3.6334156806506037e+00 2.8480503330840921e+01 1.9978111799133220e+01 4 0 0
2054 444 1 4.1499999999999998e-01 3.9821453388446284e+00 2.7216148030785380e+01 1.7632193531882340e+01 -2 -3 0
2255 444 1 4.1499999999999998e-01 3.8536350620989004e+00 2.5230820681192707e+01 1.7565047037334384e+01 1 -1 0
3198 444 4 0.0000000000000000e+00 3.4729999999999999e+00 3.1549700000000001e+01 0.0000000000000000e+00 0 0 0
3199 444 4 0.0000000000000000e+00 3.4878499999999999e+00 3.1563379999999999e+01 3.5966700000000000e+00 0 0 0
3202 444 4 0.0000000000000000e+00 3.4729999999999999e+00 2.9732749999999999e+01 1.8169999999999999e+00 0 0 0
584 444 1 4.1499999999999998e-01 3.8703595993938067e+00 3.0283140545637028e+01 6.8145795084105041e+00 1 -1 0
585 444 1 4.1499999999999998e-01 3.6293498429269011e+00 3.1584930825893139e+01 7.5488492067002149e+00 1 -1 0
998 444 1 4.1499999999999998e-01 4.0808810630155241e+00 3.1434665093146588e+01 1.5820388526252884e+01 -2 4 0
2044 444 2 -8.2999999999999996e-01 4.0134070476991095e+00 3.0342837975733040e+01 1.4778587526086969e+01 -2 2 0
2046 444 1 4.1499999999999998e-01 3.1956115218626238e+00 3.0322463860992528e+01 1.4281569120207333e+01 -2 2 0
2564 444 1 4.1499999999999998e-01 4.0099953632596455e+00 3.1763221516658241e+01 1.1351451952229754e+01 -2 4 0
905 444 1 4.1499999999999998e-01 2.1723561634838870e+00 2.9384646294129006e+01 1.2287790218647737e+01 0 -3 0
1021 444 2 -8.2999999999999996e-01 2.1095998656910204e+00 3.2520181486881675e+01 1.1013840346568855e+01 1 -5 0