LAMMPS data file via write_data, version 11 Aug 2017, timestep = 1000000

3549 atoms
11 atom types
2024 bonds
5 bond types
1018 angles
5 angle types
12 dihedrals
4 dihedral types
9 impropers
1 improper types

0.0000000000000000e+00 3.2704500000000003e+01 xlo xhi
0.0000000000000000e+00 3.2704500000000003e+01 ylo yhi
0.0000000000000000e+00 8.0000000000000000e+01 zlo zhi

Masses

1 1.0079
2 15.9994
3 39.0983
4 63.546
5 15.9994
6 12.011
7 12.011
8 15.9994
9 15.9994
10 15.9994
11 1.0079

Bond Coeffs # harmonic

1 450 0.9572
2 570 1.229
3 450 1.364
4 570 1.229
5 553 0.945

Angle Coeffs # harmonic

1 100 123.32
2 85 124
3 55 104.52
4 35 113
5 100 123.32

Dihedral Coeffs # charmm

1 0.922 1 180 0
2 3.741 2 0 0
3 0.922 1 0 0
4 3.741 2 180 0

Improper Coeffs # umbrella

1 21 0

Atoms # full

3049 444 4 0.0000000000000000e+00 1.6558999999999999e+00 6.6205000000000003e-01 3.5891000000000002e+00 0 0 0
3051 444 4 0.0000000000000000e+00 1.6560500000000000e+00 2.4790000000000001e+00 1.8169999999999999e+00 0 0 0
3060 444 4 0.0000000000000000e+00 1.6560500000000000e+00 6.6205000000000003e-01 0.0000000000000000e+00 0 0 0
1499 444 1 4.1499999999999998e-01 1.3998360237669216e+00 3.1608491805599241e+00 7.4046356608295625e+00 1 1 0
1498 444 2 -8.2999999999999996e-01 8.9296399773823476e-01 2.3633328233180602e+00 7.5572143157282117e+00 1 1 0
1548 444 1 4.1499999999999998e-01 1.3216456138364026e+00 5.9922830646465353e-01 6.9302659871082080e+00 2 1 0
1500 444 1 4.1499999999999998e-01 4.8753871376444054e-02 2.5317701655378908e+00 7.1386811805986197e+00 1 1 0
936 444 1 4.1499999999999998e-01 1.9385605212200834e+00 2.1981614396382145e+00 1.2035324202049571e+01 -7 -3 0
1336 444 2 -8.2999999999999996e-01 1.6442924544331448e+00 1.4377478714559515e+00 1.0380954243821297e+01 3 3 0
1337 444 1 4.1499999999999998e-01 1.1619133980510870e+00 1.7944406882510433e+00 9.6350904596688931e+00 3 3 0
934 444 2 -8.2999999999999996e-01 1.5571698510036565e+00 2.3123678454138168e+00 1.2905801622912042e+01 -7 -3 0
935 444 1 4.1499999999999998e-01 6.7829531445325364e-01 2.6533736345584429e+00 1.2739887119028891e+01 -7 -3 0
1758 444 1 4.1499999999999998e-01 8.0073303567688536e-01 1.1218248534889628e+00 1.8457186316047245e+01 0 2 0
525 444 1 4.1499999999999998e-01 1.5215887637669023e+00 1.8874889098572747e-01 1.6396910769780373e+01 -4 -4 0
1756 444 2 -8.2999999999999996e-01 4.6611923516471315e-01 4.6347424629119260e-01 1.7848220080044719e+01 0 2 0
2178 444 1 4.1499999999999998e-01 1.2165028492859271e+00 3.0457119063103937e+00 1.8881863175455941e+01 -2 3 0
3066 444 4 0.0000000000000000e+00 1.6560500000000000e+00 4.2959500000000004e+00 0.0000000000000000e+00 0 0 0
3067 444 4 0.0000000000000000e+00 1.6550100000000001e+00 4.2936300000000003e+00 3.5961400000000001e+00 0 0 0
3069 444 4 0.0000000000000000e+00 1.6560500000000000e+00 6.1128000000000000e+00 1.8169999999999999e+00 0 0 0
3086 444 4 0.0000000000000000e+00 1.6560500000000000e+00 7.9297500000000003e+00 0.0000000000000000e+00 0 0 0
3087 444 4 0.0000000000000000e+00 1.6555800000000001e+00 7.9339800000000000e+00 3.5963300000000000e+00 0 0 0
2340 444 1 4.1499999999999998e-01 9.3656022718607401e-01 5.0866111717322706e+00 6.5051776340542453e+00 -1 0 0
2338 444 2 -8.2999999999999996e-01 4.5808350324760022e-02 5.3954554047353787e+00 6.3396234774888720e+00 -1 0 0
125 444 1 4.1499999999999998e-01 5.7528773025078035e-03 7.6762144904314207e+00 8.8900599298770846e+00 0 -3 0
2449 444 2 -8.2999999999999996e-01 1.2747188281268367e+00 5.5288290138035103e+00 1.2778556785797418e+01 -2 -2 0
1675 444 2 -8.2999999999999996e-01 1.5476001784679001e+00 7.7588745178183283e+00 1.5369676708953843e+01 3 3 0
2450 444 1 4.1499999999999998e-01 8.4333877599430918e-01 5.5575582790296973e+00 1.3632557834710841e+01 -2 -2 0
2451 444 1 4.1499999999999998e-01 6.0181664540328561e-01 5.2034043747131262e+00 1.2180615365350912e+01 -2 -2 0
1677 444 1 4.1499999999999998e-01 1.4523005270250748e+00 6.8227871686336412e+00 1.5545435895350186e+01 3 3 0
43 444 2 -8.2999999999999996e-01 7.6228721854661263e-01 5.3512953273761621e+00 1.6325060800178225e+01 0 0 0
44 444 1 4.1499999999999998e-01 1.2171387645033211e+00 5.0313208588711467e+00 1.7104136089364989e+01 0 0 0
45 444 1 4.1499999999999998e-01 7.3475174776203245e-02 4.7056587170093307e+00 1.6167187160768517e+01 0 0 0
3089 444 4 0.0000000000000000e+00 1.6560500000000000e+00 9.7467000000000006e+00 1.8169999999999999e+00 0 0 0
3106 444 4 0.0000000000000000e+00 1.6558999999999999e+00 1.1563499999999999e+01 3.5891000000000002e+00 0 0 0
3117 444 4 0.0000000000000000e+00 1.6560500000000000e+00 1.1563499999999999e+01 0.0000000000000000e+00 0 0 0
819 444 1 4.1499999999999998e-01 1.0165299439233921e+00 8.7755529298882511e+00 6.5825835351269033e+00 0 0 0
817 444 2 -8.2999999999999996e-01 1.8942598239432644e+00 9.0092086729893843e+00 6.2805434686994071e+00 0 0 0
2223 444 1 4.1499999999999998e-01 1.1490131047294097e+00 1.1357786862239001e+01 1.1333139443295563e+01 3 -1 0
2222 444 1 4.1499999999999998e-01 7.5511502139841435e-01 1.0059374945849473e+01 1.2004605117291129e+01 3 -1 0
2221 444 2 -8.2999999999999996e-01 1.4239381523038166e+00 1.0744074726327707e+01 1.2014319529205368e+01 3 -1 0
2456 444 1 4.1499999999999998e-01 3.7186024938935641e-01 8.3814551509735651e+00 1.4243268295252896e+01 2 -3 0
2543 444 1 4.1499999999999998e-01 1.3511060277261528e+00 1.1955141676261139e+01 8.6887597755029500e+00 -2 5 0
2542 444 2 -8.2999999999999996e-01 8.0551274184797550e-01 1.2038987137682813e+01 9.4707637540974225e+00 -2 5 0
3005 444 1 4.1499999999999998e-01 1.7208043060789762e+00 9.8484464273450456e+00 1.7529640782205504e+01 -2 2 0
3004 444 2 -8.2999999999999996e-01 9.2705149839208045e-01 9.5931255820214361e+00 1.7059534992077811e+01 -2 2 0
3006 444 1 4.1499999999999998e-01 1.2128131488486544e+00 8.8993466633592782e+00 1.6465192856541968e+01 -2 2 0
3108 444 4 0.0000000000000000e+00 1.6560500000000000e+00 1.3380500000000000e+01 1.8169999999999999e+00 0 0 0
3123 444 4 0.0000000000000000e+00 1.6560500000000000e+00 1.5197400000000000e+01 0.0000000000000000e+00 0 0 0
3124 444 4 0.0000000000000000e+00 1.6550100000000001e+00 1.5195100000000000e+01 3.5961400000000001e+00 0 0 0
1103 444 1 4.1499999999999998e-01 8.7860403856277536e-01 1.4385510283343743e+01 6.4620076772524486e+00 4 0 0
1102 444 2 -8.2999999999999996e-01 1.5343714431987518e+00 1.4935096722486376e+01 6.8911420509320509e+00 4 0 0
336 444 1 4.1499999999999998e-01 5.3374070909998161e-01 1.5919745743663208e+01 7.7912157205466359e+00 1 -1 0
202 444 2 -8.2999999999999996e-01 2.9165867254869926e-01 1.2690371957424441e+01 5.9988033775958067e+00 3 0 0
204 444 1 4.1499999999999998e-01 1.1562688991342418e+00 1.2550399655101764e+01 6.3849235274696552e+00 3 0 0
1360 444 2 -8.2999999999999996e-01 2.0255263254803793e+00 1.6301643821749149e+01 1.5511132001186516e+01 -1 1 0
1361 444 1 4.1499999999999998e-01 1.2007428866796492e+00 1.5905702868862399e+01 1.5792548929945758e+01 -1 1 0
72 444 1 4.1499999999999998e-01 8.4947583744589583e-01 1.3524598706915572e+01 1.3614468800474507e+01 -1 -1 0
2544 444 1 4.1499999999999998e-01 5.9548134298556243e-01 1.2971665789546901e+01 9.5179795171359380e+00 -2 5 0
431 444 1 4.1499999999999998e-01 1.6999226442925006e+00 1.3913433917369407e+01 1.1733981031293444e+01 -3 -5 0
56 444 1 4.1499999999999998e-01 1.9638055463248176e+00 1.5547883901151049e+01 1.9367592290342941e+01 0 -3 0
2309 444 1 4.1499999999999998e-01 3.9116035524633125e-01 1.3928946566816496e+01 1.6850776832282193e+01 -2 -4 0
3126 444 4 0.0000000000000000e+00 1.6560500000000000e+00 1.7014299999999999e+01 1.8169999999999999e+00 0 0 0
3143 444 4 0.0000000000000000e+00 1.6560500000000000e+00 1.8831299999999999e+01 0.0000000000000000e+00 0 0 0
3144 444 4 0.0000000000000000e+00 1.6555800000000001e+00 1.8835500000000000e+01 3.5963300000000000e+00 0 0 0
2152 444 2 -8.2999999999999996e-01 1.6516824864957822e+00 1.7345428222455855e+01 5.8472160370335731e+00 1 -1 0
2153 444 1 4.1499999999999998e-01 1.5748086414846816e+00 1.6405523820410256e+01 6.0112342768966629e+00 1 -1 0
110 444 1 4.1499999999999998e-01 3.6574932508859020e-01 1.8438048804758672e+01 6.4928237906086146e+00 0 3 0
2636 444 1 4.1499999999999998e-01 1.0824265339096804e+00 1.8958482162002610e+01 9.3161466680143601e+00 0 -1 0
2635 444 2 -8.2999999999999996e-01 1.6250452339225108e+00 1.8170051659256728e+01 9.3293506876495194e+00 0 -1 0
335 444 1 4.1499999999999998e-01 4.9505716365187796e-01 1.6998809781360031e+01 8.8523563383142463e+00 1 -1 0
2801 444 1 4.1499999999999998e-01 3.9905767498419087e-01 1.6718640967758912e+01 1.1904737591097762e+01 -1 2 0
2637 444 1 4.1499999999999998e-01 1.6941536990322168e+00 1.7941781196132041e+01 1.0256361870313574e+01 0 -1 0
2741 444 1 4.1499999999999998e-01 1.5159528909628499e+00 2.0179279774718694e+01 1.5156081274544380e+01 3 0 0
2742 444 1 4.1499999999999998e-01 2.7770251885345997e-02 2.0192771526314857e+01 1.4878546398270633e+01 3 0 0
3146 444 4 0.0000000000000000e+00 1.6560500000000000e+00 2.0648199999999999e+01 1.8169999999999999e+00 0 0 0
3163 444 4 0.0000000000000000e+00 1.6558999999999999e+00 2.2465100000000000e+01 3.5891000000000002e+00 0 0 0
3165 444 4 0.0000000000000000e+00 1.6560500000000000e+00 2.4282000000000000e+01 1.8169999999999999e+00 0 0 0
3174 444 4 0.0000000000000000e+00 1.6560500000000000e+00 2.2465100000000000e+01 0.0000000000000000e+00 0 0 0
760 444 2 -8.2999999999999996e-01 9.1524123603724405e-01 2.1594181289227812e+01 6.5371364416730895e+00 0 2 0
762 444 1 4.1499999999999998e-01 1.8378379571629000e+00 2.1359858184883514e+01 6.4364364413205868e+00 0 2 0
2570 444 1 4.1499999999999998e-01 3.2813025328757761e-01 2.4369764651962853e+01 6.8275919464973924e+00 1 2 0
761 444 1 4.1499999999999998e-01 4.4105437705426370e-01 2.0779961267416549e+01 6.3685382767884979e+00 0 2 0
2740 444 2 -8.2999999999999996e-01 6.8207163472888832e-01 2.0484679884791163e+01 1.5513299434393279e+01 3 0 0
1568 444 1 4.1499999999999998e-01 1.0144134372148246e+00 2.1263467634013715e+01 1.2128502072032720e+01 2 7 0
1567 444 2 -8.2999999999999996e-01 1.0909701605470146e-01 2.1381009485894374e+01 1.1840721618291509e+01 2 7 0
1378 444 2 -8.2999999999999996e-01 9.3542382223858314e-02 2.3767425943627526e+01 1.1163963306218442e+01 1 -4 0
1379 444 1 4.1499999999999998e-01 8.3404229381634754e-01 2.4184095664753393e+01 1.0723193806164490e+01 1 -4 0
1569 444 1 4.1499999999999998e-01 3.8234196806271825e-02 2.2315761939738014e+01 1.1647206769745035e+01 2 7 0
2791 444 2 -8.2999999999999996e-01 4.4145692608655923e-01 2.1093080422349285e+01 1.9530338207106730e+01 -4 -1 0
171 444 1 4.1499999999999998e-01 5.2555265619453295e-01 2.2011198165379785e+01 1.6415498888866903e+01 0 3 0
169 444 2 -8.2999999999999996e-01 5.7301299190269217e-01 2.2512236642699175e+01 1.7229710000972663e+01 0 3 0
170 444 1 4.1499999999999998e-01 3.0848970450559549e-01 2.1891894407556649e+01 1.7908999779552044e+01 0 3 0
3180 444 4 0.0000000000000000e+00 1.6560500000000000e+00 2.6098900000000000e+01 0.0000000000000000e+00 0 0 0
3181 444 4 0.0000000000000000e+00 1.6550100000000001e+00 2.6096599999999999e+01 3.5961400000000001e+00 0 0 0
3183 444 4 0.0000000000000000e+00 1.6560500000000000e+00 2.7915800000000001e+01 1.8169999999999999e+00 0 0 0
1146 444 1 4.1499999999999998e-01 1.5729731862350915e+00 2.7998708642463033e+01 5.8945405408649778e+00 1 -3 0
1346 444 1 4.1499999999999998e-01 1.2194786099554478e+00 2.5717337431989410e+01 7.9904783426045798e+00 -1 1 0
1345 444 2 -8.2999999999999996e-01 1.4807685303889448e+00 2.5464447372703141e+01 7.1050374686395994e+00 -1 1 0
1347 444 1 4.1499999999999998e-01 1.7304223378443726e+00 2.6287174437599894e+01 6.6842944840916960e+00 -1 1 0
1555 444 2 -8.2999999999999996e-01 1.2456270375897149e+00 2.6423467172794084e+01 9.6100837473358904e+00 -3 -7 0
1556 444 1 4.1499999999999998e-01 1.3576100852201423e+00 2.7371670893244538e+01 9.5422517751958065e+00 -3 -7 0
1832 444 1 4.1499999999999998e-01 8.8725050439492814e-01 2.4806573452269038e+01 1.4728961513441007e+01 -4 0 0
3038 444 11 3.5999999999999999e-01 1.4366951424015523e-01 2.6587998715278754e+01 1.5065060071050894e+01 0 -3 0
1831 444 2 -8.2999999999999996e-01 1.3794975370741898e+00 2.5051320630573517e+01 1.5512558801532306e+01 -4 0 0
2829 444 1 4.1499999999999998e-01 1.9973516570408474e+00 2.6518539826750832e+01 1.9828674617011693e+01 -4 -4 0
1539 444 1 4.1499999999999998e-01 2.6339851656746760e-01 2.5221222104472922e+01 1.8919538783701576e+01 3 -1 0
2827 444 2 -8.2999999999999996e-01 1.4524670895108907e+00 2.5734580553920122e+01 1.9897526735478404e+01 -4 -4 0
1833 444 1 4.1499999999999998e-01 9.6082313289637500e-01 2.4562818684632585e+01 1.6221297246035363e+01 -4 0 0
3200 444 4 0.0000000000000000e+00 1.6560500000000000e+00 2.9732700000000001e+01 0.0000000000000000e+00 0 0 0
3201 444 4 0.0000000000000000e+00 1.6555800000000001e+00 2.9736999999999998e+01 3.5963300000000000e+00 0 0 0
3203 444 4 0.0000000000000000e+00 1.6560500000000000e+00 3.1549700000000001e+01 1.8169999999999999e+00 0 0 0
2181 444 1 4.1499999999999998e-01 4.3507310338476707e-01 3.1414765913156131e+01 6.4625616811990438e+00 0 -1 0
1546 444 2 -8.2999999999999996e-01 1.6981135998715031e+00 3.2503993249091771e+01 7.2975906626486262e+00 2 0 0
2434 444 2 -8.2999999999999996e-01 8.3851746251160847e-02 2.9422434998647876e+01 1.4289237314396214e+01 1 -2 0
140 444 1 4.1499999999999998e-01 1.1758621401267007e+00 2.9586977651765583e+01 1.0763326726328787e+01 -1 -6 0
3031 444 3 1.0000000000000000e+00 1.5041232486700966e+00 3.2053149535333851e+01 1.3197608441681085e+01 3 0 0
139 444 2 -8.2999999999999996e-01 1.3399527500582735e+00 3.0219411701477430e+01 1.1462850166583282e+01 -1 -6 0
41 444 1 4.1499999999999998e-01 1.3796167318104777e+00 2.9331521849423819e+01 8.5290458134149905e+00 0 -2 0
2780 444 1 4.1499999999999998e-01 1.5694548091345573e+00 2.8639253409165327e+01 1.3495056406792362e+01 2 -3 0
42 444 1 4.1499999999999998e-01 2.3754946131273519e-02 2.8701370662503969e+01 8.7666247376610613e+00 0 -2 0
40 444 2 -8.2999999999999996e-01 8.2173513966248513e-01 2.8973744185059061e+01 9.2196946025964213e+00 0 -2 0
1575 444 1 4.1499999999999998e-01 1.1629961199184495e+00 3.1390331334885634e+01 1.8242146139742900e+01 -3 -2 0
1573 444 2 -8.2999999999999996e-01 1.6566621964519475e+00 3.0739725649345498e+01 1.8741383311019266e+01 -3 -2 0
1574 444 1 4.1499999999999998e-01 2.0351679894338552e+00 3.1232536092188219e+01 1.9469465048028908e+01 -3 -2 0
2006 444 1 4.1499999999999998e-01 1.6852981289671622e+00 2.9243388835151169e+01 1.9524964336339828e+01 0 2 0
3050 444 4 0.0000000000000000e+00 3.4729999999999999e+00 6.6205000000000003e-01 1.8169999999999999e+00 0 0 0
3074 444 4 0.0000000000000000e+00 3.4639400000000000e+00 2.4712000000000001e+00 3.5865499999999999e+00 0 0 0
3075 444 4 0.0000000000000000e+00 3.4729999999999999e+00 2.4790000000000001e+00 0.0000000000000000e+00 0 0 0
2121 444 1 4.1499999999999998e-01 3.1914823410692779e+00 4.0256094036717380e+00 6.5379911754615128e+00 -5 -3 0
1547 444 1 4.1499999999999998e-01 2.5989105583500018e+00 3.7220498948686676e-02 7.5173234371559401e+00 2 1 0
2044 444 2 -8.2999999999999996e-01 4.0793181486683219e+00 1.5593767610396125e-01 7.9739961041570098e+00 3 -2 0
524 444 1 4.1499999999999998e-01 2.2812233512314219e+00 1.1689180989027266e+00 1.5528510893355625e+01 -4 -4 0
614 444 1 4.1499999999999998e-01 2.8261480201667313e+00 3.0706747560336534e+00 1.4738950876813462e+01 -1 -1 0
523 444 2 -8.2999999999999996e-01 2.1163240650314306e+00 2.3366183406051644e-01 1.5648242249765227e+01 -4 -4 0
613 444 2 -8.2999999999999996e-01 3.0135929393932148e+00 2.7888869996756811e+00 1.5634323527647846e+01 -1 -1 0
1338 444 1 4.1499999999999998e-01 2.1753570207309649e+00 7.3369494045509154e-01 1.0008782473907393e+01 3 3 0
2177 444 1 4.1499999999999998e-01 2.6688730023728739e+00 3.1714851931846089e+00 1.9290148365153577e+01 -2 3 0
2176 444 2 -8.2999999999999996e-01 2.0938780478845946e+00 3.1838775406396951e+00 1.8524995464113115e+01 -2 3 0
615 444 1 4.1499999999999998e-01 2.5392265033199708e+00 3.4109122783827930e+00 1.6185951130992652e+01 -1 -1 0
3064 444 4 0.0000000000000000e+00 3.4729999999999999e+00 6.1128000000000000e+00 0.0000000000000000e+00 0 0 0
3065 444 4 0.0000000000000000e+00 3.4502799999999998e+00 6.1173200000000003e+00 3.5704799999999999e+00 0 0 0
3068 444 4 0.0000000000000000e+00 3.4729999999999999e+00 4.2959500000000004e+00 1.8169999999999999e+00 0 0 0
3088 444 4 0.0000000000000000e+00 3.4729999999999999e+00 7.9297500000000003e+00 1.8169999999999999e+00 0 0 0
134 444 1 4.1499999999999998e-01 3.7786625713270889e+00 7.3222635904442788e+00 7.9400720338464756e+00 3 2 0
133 444 2 -8.2999999999999996e-01 3.8602906765795777e+00 6.9934759497316783e+00 7.0448244982171291e+00 3 2 0
2120 444 1 4.1499999999999998e-01 2.8995603855561773e+00 5.4894548915622510e+00 6.7906431534146057e+00 -5 -3 0
2119 444 2 -8.2999999999999996e-01 2.4723353283171727e+00 4.6388740503070824e+00 6.6895353176479917e+00 -5 -3 0
2485 444 2 -8.2999999999999996e-01 3.2835495392533063e+00 7.3266010701971327e+00 9.6994552378617342e+00 3 -4 0
2486 444 1 4.1499999999999998e-01 2.4111782607953862e+00 7.0776582999210618e+00 1.0004787066404486e+01 3 -4 0
1388 444 1 4.1499999999999998e-01 2.8565285153938675e+00 5.0854758252040169e+00 1.2802631443653382e+01 -1 0 0
1389 444 1 4.1499999999999998e-01 3.9666484970324754e+00 5.5599519243433067e+00 1.3716086883689837e+01 -1 0 0
1676 444 1 4.1499999999999998e-01 2.2169342501769225e+00 7.8079855742721307e+00 1.4687171499810072e+01 3 3 0
1387 444 2 -8.2999999999999996e-01 3.7425997803879976e+00 4.8688961958317982e+00 1.3092808538293301e+01 -1 0 0
451 444 2 -8.2999999999999996e-01 3.6655344646918713e+00 6.7104068738266367e+00 1.7381443890822251e+01 2 7 0
2759 444 1 4.1499999999999998e-01 3.6406087938660043e+00 6.4287657234772340e+00 1.9320021679550855e+01 0 2 0
453 444 1 4.1499999999999998e-01 3.2466127823644038e+00 7.3644887773949366e+00 1.6822057354507081e+01 2 7 0
3084 444 4 0.0000000000000000e+00 3.4729999999999999e+00 9.7467000000000006e+00 0.0000000000000000e+00 0 0 0
3085 444 4 0.0000000000000000e+00 3.4707499999999998e+00 9.7492599999999996e+00 3.5906300000000000e+00 0 0 0
3107 444 4 0.0000000000000000e+00 3.4729999999999999e+00 1.1563499999999999e+01 1.8169999999999999e+00 0 0 0
550 444 2 -8.2999999999999996e-01 2.3212414120918581e+00 1.1402367603568047e+01 7.0051331154799366e+00 -1 0 0
551 444 1 4.1499999999999998e-01 3.1583733406663907e+00 1.1606574762626792e+01 6.5883104166867152e+00 -1 0 0
552 444 1 4.1499999999999998e-01 2.1931734269893428e+00 1.0468030046996985e+01 6.8412929240121825e+00 -1 0 0
818 444 1 4.1499999999999998e-01 2.4491282187076466e+00 8.2861974456991323e+00 6.5731319599636722e+00 0 0 0
178 444 2 -8.2999999999999996e-01 3.5687728709980853e+00 9.6504623455115421e+00 1.1112653540350227e+01 -1 3 0
179 444 1 4.1499999999999998e-01 2.7404922468370887e+00 9.9788849121109759e+00 1.1462397983080347e+01 -1 3 0
2805 444 1 4.1499999999999998e-01 3.1560862964778846e+00 1.1942947066348749e+01 1.4229723475116698e+01 2 -3 0
1891 444 2 -8.2999999999999996e-01 3.5243181809081019e+00 8.2907797128730483e+00 1.3590681964873500e+01 1 2 0
2803 444 2 -8.2999999999999996e-01 3.4853147268352660e+00 1.1148594686544637e+01 1.3809193790899799e+01 2 -3 0
2804 444 1 4.1499999999999998e-01 2.7411853652585787e+00 1.0817064712844557e+01 1.3306608393297275e+01 2 -3 0
180 444 1 4.1499999999999998e-01 3.9120054555198736e+00 1.0374407684498205e+01 1.0588891877706688e+01 -1 3 0
2487 444 1 4.1499999999999998e-01 3.4436918518118733e+00 8.1806364171173840e+00 1.0100964441502894e+01 3 -4 0
1893 444 1 4.1499999999999998e-01 3.4491437424162577e+00 8.3038579504196317e+00 1.2636527830193975e+01 1 2 0
143 444 1 4.1499999999999998e-01 2.7150017743800898e+00 1.0938688598692009e+01 1.9131043269469124e+01 0 3 0
142 444 2 -8.2999999999999996e-01 2.8250333838254722e+00 1.0020579011703912e+01 1.8883656135091833e+01 0 3 0
144 444 1 4.1499999999999998e-01 3.7222536532780111e+00 9.8085390425941945e+00 1.9141080860056217e+01 0 3 0
3125 444 4 0.0000000000000000e+00 3.4729999999999999e+00 1.5197400000000000e+01 1.8169999999999999e+00 0 0 0
3131 444 4 0.0000000000000000e+00 3.4639400000000000e+00 1.3372700000000000e+01 3.5865499999999999e+00 0 0 0
3132 444 4 0.0000000000000000e+00 3.4729999999999999e+00 1.3380500000000000e+01 0.0000000000000000e+00 0 0 0
1104 444 1 4.1499999999999998e-01 2.3431271374317770e+00 1.4425321495092481e+01 6.8434299654322492e+00 4 0 0
1894 444 2 -8.2999999999999996e-01 4.0126592372739962e+00 1.3872372027448439e+01 6.2250942632561168e+00 -1 0 0
1680 444 1 4.1499999999999998e-01 2.9422829497217853e+00 1.3729968140047406e+01 1.4837981125010016e+01 -1 7 0
430 444 2 -8.2999999999999996e-01 2.2173436665513426e+00 1.4375933423169590e+01 1.1074737793346220e+01 -3 -5 0
1679 444 1 4.1499999999999998e-01 2.4275832024364963e+00 1.4949687006701902e+01 1.4103634361635557e+01 -1 7 0
432 444 1 4.1499999999999998e-01 3.1087196176370053e+00 1.4049080372620478e+01 1.1196592530940919e+01 -3 -5 0
1617 444 1 4.1499999999999998e-01 2.3178689708069484e+00 1.6131588217497427e+01 1.1503526495165735e+01 -2 -1 0
1678 444 2 -8.2999999999999996e-01 2.5464056035171923e+00 1.4004435631453140e+01 1.4010829008148235e+01 -1 7 0
55 444 2 -8.2999999999999996e-01 2.3111697178073354e+00 1.5125696800777931e+01 1.8581890068025100e+01 0 -3 0
2734 444 2 -8.2999999999999996e-01 3.3322187502212035e+00 1.2767882127918838e+01 1.9671643424038560e+01 -4 5 0
2735 444 1 4.1499999999999998e-01 2.6700793612124820e+00 1.3416515660222075e+01 1.9432733678657300e+01 -4 5 0
57 444 1 4.1499999999999998e-01 2.9649609427955865e+00 1.5740161581310762e+01 1.8248390814677585e+01 0 -3 0
2956 444 2 -8.2999999999999996e-01 3.4064527036789838e+00 1.3278752728463203e+01 1.6325780172459819e+01 1 4 0
2958 444 1 4.1499999999999998e-01 3.1506091215954761e+00 1.3825559901252941e+01 1.7068597796279775e+01 1 4 0
3121 444 4 0.0000000000000000e+00 3.4729999999999999e+00 1.7014299999999999e+01 0.0000000000000000e+00 0 0 0
3122 444 4 0.0000000000000000e+00 3.4502799999999998e+00 1.7018799999999999e+01 3.5704799999999999e+00 0 0 0
3145 444 4 0.0000000000000000e+00 3.4729999999999999e+00 1.8831299999999999e+01 1.8169999999999999e+00 0 0 0
166 444 2 -8.2999999999999996e-01 3.6409654898308386e+00 1.8105068035619315e+01 7.7029878620498566e+00 4 1 0
2073 444 1 4.1499999999999998e-01 3.7417024698570924e+00 1.9513859224760456e+01 6.5909081360107447e+00 1 -1 0
2154 444 1 4.1499999999999998e-01 2.4451915273142584e+00 1.7606487577156987e+01 6.3145737885857800e+00 1 -1 0
2071 444 2 -8.2999999999999996e-01 3.5917501735185668e+00 2.0362030968559424e+01 6.1733537253224249e+00 1 -1 0
2561 444 1 4.1499999999999998e-01 3.2537822903729472e+00 1.7227109276136289e+01 1.4542129671073260e+01 3 1 0
1616 444 1 4.1499999999999998e-01 2.8675100515046963e+00 1.7252032647004938e+01 1.2360495058480586e+01 -2 -1 0
2560 444 2 -8.2999999999999996e-01 3.7890375347464942e+00 1.7696897996476491e+01 1.3902572595452368e+01 3 1 0
167 444 1 4.1499999999999998e-01 2.9769903097150348e+00 1.8157498616878545e+01 8.3904613350243356e+00 4 1 0
1615 444 2 -8.2999999999999996e-01 2.1595760516429885e+00 1.7042524362447157e+01 1.1751259304224497e+01 -2 -1 0
1362 444 1 4.1499999999999998e-01 2.5339591511257402e+00 1.6395275470677106e+01 1.6316713213840508e+01 -1 1 0
358 444 2 -8.2999999999999996e-01 4.0458712618433497e+00 1.6854010047355960e+01 1.7708147422802679e+01 -1 0 0
3141 444 4 0.0000000000000000e+00 3.4729999999999999e+00 2.0648199999999999e+01 0.0000000000000000e+00 0 0 0
3142 444 4 0.0000000000000000e+00 3.4707499999999998e+00 2.0650800000000000e+01 3.5906300000000000e+00 0 0 0
3164 444 4 0.0000000000000000e+00 3.4729999999999999e+00 2.2465100000000000e+01 1.8169999999999999e+00 0 0 0
3188 444 4 0.0000000000000000e+00 3.4639400000000000e+00 2.4274200000000000e+01 3.5865499999999999e+00 0 0 0
3189 444 4 0.0000000000000000e+00 3.4729999999999999e+00 2.4282000000000000e+01 0.0000000000000000e+00 0 0 0
2674 444 2 -8.2999999999999996e-01 3.8399818548244951e+00 2.2600912737950420e+01 1.4307155046946596e+01 -2 -6 0
676 444 2 -8.2999999999999996e-01 2.8998692524029139e+00 2.1019870439438886e+01 1.1756521935375559e+01 0 -3 0
677 444 1 4.1499999999999998e-01 2.8157729001994380e+00 2.1310084668646734e+01 1.0848262123467766e+01 0 -3 0
2638 444 2 -8.2999999999999996e-01 3.1771961162761091e+00 2.1912686075261309e+01 9.1328677519517427e+00 -1 -7 0
929 444 1 4.1499999999999998e-01 3.0571411023309811e+00 2.3925091935970446e+01 1.3309447217918605e+01 6 1 0
2777 444 1 4.1499999999999998e-01 3.6617063472285452e+00 2.3687554800503058e+01 9.7442473443402129e+00 -3 6 0
2639 444 1 4.1499999999999998e-01 4.0093683825509041e+00 2.1834714201831627e+01 8.6663476120431966e+00 -1 -7 0
2676 444 1 4.1499999999999998e-01 3.8387478650442368e+00 2.2713328684009603e+01 1.5257730190777215e+01 -2 -6 0
678 444 1 4.1499999999999998e-01 3.7053355374735188e+00 2.0502875844316780e+01 1.1769667302491703e+01 0 -3 0
2640 444 1 4.1499999999999998e-01 2.5165719389289389e+00 2.1947396725285635e+01 8.4410565688422530e+00 -1 -7 0
2776 444 2 -8.2999999999999996e-01 4.0753787490388529e+00 2.4513216472521222e+01 9.9960218273838066e+00 -3 6 0
879 444 1 4.1499999999999998e-01 2.4515602560975025e+00 2.1926982654821991e+01 1.6897558955068046e+01 3 -4 0
877 444 2 -8.2999999999999996e-01 3.4066554054180695e+00 2.1972356954910218e+01 1.6853212468387955e+01 3 -4 0
878 444 1 4.1499999999999998e-01 3.7069554194674232e+00 2.1240002324472410e+01 1.7391458249926323e+01 3 -4 0
255 444 1 4.1499999999999998e-01 3.3791037528309191e+00 2.1056346607991657e+01 1.9846201805671047e+01 -6 1 0
3178 444 4 0.0000000000000000e+00 3.4729999999999999e+00 2.7915800000000001e+01 0.0000000000000000e+00 0 0 0
3179 444 4 0.0000000000000000e+00 3.4502799999999998e+00 2.7920300000000001e+01 3.5704799999999999e+00 0 0 0
3182 444 4 0.0000000000000000e+00 3.4729999999999999e+00 2.6098900000000000e+01 1.8169999999999999e+00 0 0 0
1145 444 1 4.1499999999999998e-01 2.9107676023103668e+00 2.8403243039064687e+01 6.4763932312650603e+00 1 -3 0
1144 444 2 -8.2999999999999996e-01 2.4894031021493470e+00 2.7727118207066368e+01 5.9457912732659270e+00 1 -3 0
2612 444 1 4.1499999999999998e-01 3.3862563702471000e+00 2.4649252906080012e+01 6.8971527854387471e+00 0 -6 0
2779 444 2 -8.2999999999999996e-01 2.5035762438144267e+00 2.8442864942030976e+01 1.3423773646289838e+01 2 -3 0
1856 444 1 4.1499999999999998e-01 3.1588170762280239e+00 2.7757785895952587e+01 1.1980408276622107e+01 -1 3 0
928 444 2 -8.2999999999999996e-01 3.0629977448837455e+00 2.4812937815155294e+01 1.2951776252063407e+01 6 1 0
930 444 1 4.1499999999999998e-01 2.4270721210490680e+00 2.5290473430995132e+01 1.3484495976839838e+01 6 1 0
1855 444 2 -8.2999999999999996e-01 3.3469595010667703e+00 2.7247333310764876e+01 1.1192834555362301e+01 -1 3 0
1857 444 1 4.1499999999999998e-01 3.6590215134236899e+00 2.6404430283775827e+01 1.1522020614954279e+01 -1 3 0
1557 444 1 4.1499999999999998e-01 2.0691063748051519e+00 2.6110747480321898e+01 9.9846768125895053e+00 -3 -7 0
1623 444 1 4.1499999999999998e-01 4.0679124171288876e+00 2.5327935859082128e+01 1.6609032308601261e+01 -2 0 0
1621 444 2 -8.2999999999999996e-01 3.4630485402538924e+00 2.6053369740483053e+01 1.6764329514053227e+01 -2 0 0
1622 444 1 4.1499999999999998e-01 2.6368071854283714e+00 2.5763969643978751e+01 1.6377283481115384e+01 -2 0 0
2007 444 1 4.1499999999999998e-01 2.8409074872858571e+00 2.8317060766595034e+01 1.9838617801305560e+01 0 2 0
2609 444 1 4.1499999999999998e-01 4.0774195403103297e+00 2.8460442449248074e+01 1.8183963093043054e+01 4 0 0
3198 444 4 0.0000000000000000e+00 3.4729999999999999e+00 3.1549700000000001e+01 0.0000000000000000e+00 0 0 0
3199 444 4 0.0000000000000000e+00 3.4707499999999998e+00 3.1552299999999999e+01 3.5906300000000000e+00 0 0 0
3202 444 4 0.0000000000000000e+00 3.4729999999999999e+00 2.9732700000000001e+01 1.8169999999999999e+00 0 0 0
361 444 2 -8.2999999999999996e-01 2.8539441172252649e+00 2.9897118439881485e+01 7.3235248503213048e+00 1 1 0
362 444 1 4.1499999999999998e-01 2.6296953081180905e+00 3.0812323104387044e+01 7.4918837359036354e+00 1 1 0
363 444 1 4.1499999999999998e-01 3.7838170669590467e+00 2.9915597765420880e+01 7.0971920944819340e+00 1 1 0
574 444 2 -8.2999999999999996e-01 4.0607947967091240e+00 3.0855751706936680e+01 1.3504430786150822e+01 2 -3 0
2781 444 1 4.1499999999999998e-01 2.9397523336075104e+00 2.9259010267334411e+01 1.3668496795866689e+01 2 -3 0
141 444 1 4.1499999999999998e-01 2.2691795420674601e+00 3.0115140179949851e+01 1.1667536814210452e+01 -1 -6 0
1057 444 2 -8.2999999999999996e-01 3.9332713188009043e+00 3.2658424278423574e+01 1.1504988712130974e+01 -1 3 0
1047 444 1 4.1499999999999998e-01 4.0443122283803081e+00 3.0373874045540830e+01 1.6448725989649358e+01 -2 1 0
3054 444 4 0.0000000000000000e+00 5.2898399999999999e+00 6.6205000000000003e-01 0.0000000000000000e+00 0 0 0
3055 444 4 0.0000000000000000e+00 5.2854700000000001e+00 6.6132999999999997e-01 3.5952600000000001e+00 0 0 0
3057 444 4 0.0000000000000000e+00 5.2898399999999999e+00 2.4790000000000001e+00 1.8169999999999999e+00 0 0 0
1118 444 1 4.1499999999999998e-01 5.0144251195436294e+00 3.0799248077893986e+00 6.8321637466852492e+00 4 4 0
1117 444 2 -8.2999999999999996e-01 4.2256953332284724e+00 2.7313468746868379e+00 6.4166753158169723e+00 4 4 0
1119 444 1 4.1499999999999998e-01 4.1077427769135468e+00 1.8677262643655759e+00 6.8122491403585501e+00 4 4 0
1417 444 2 -8.2999999999999996e-01 5.6541224790610700e+00 2.1526115926695630e+00 8.9620852730009624e+00 1 2 0
2716 444 2 -8.2999999999999996e-01 4.8791539527328753e+00 3.0637132960880575e+00 1.1581738549439768e+01 -1 -2 0
1419 444 1 4.1499999999999998e-01 5.4741611672142136e+00 2.6485736725632845e+00 9.7607515515051801e+00 1 2 0
1852 444 2 -8.2999999999999996e-01 5.2868254623495385e+00 1.5868168718671787e+00 1.5647233897690683e+01 -3 -1 0
2046 444 1 4.1499999999999998e-01 4.8067300771293464e+00 7.1201084200189491e-01 8.2530766890632474e+00 3 -2 0