LAMMPS data file via write_data, version 11 Aug 2017, timestep = 1000000

3558 atoms
11 atom types
2024 bonds
5 bond types
1018 angles
5 angle types
12 dihedrals
4 dihedral types
9 impropers
1 improper types

0.0000000000000000e+00 3.2704500000000003e+01 xlo xhi
0.0000000000000000e+00 3.2704500000000003e+01 ylo yhi
0.0000000000000000e+00 8.0000000000000000e+01 zlo zhi

Masses

1 1.0079
2 15.9994
3 39.0983
4 63.546
5 15.9994
6 12.011
7 12.011
8 15.9994
9 15.9994
10 15.9994
11 1.0079

Bond Coeffs # harmonic

1 450 0.9572
2 570 1.229
3 450 1.364
4 570 1.229
5 553 0.945

Angle Coeffs # harmonic

1 100 123.32
2 85 124
3 55 104.52
4 35 113
5 100 123.32

Dihedral Coeffs # charmm

1 0.922 1 180 0
2 3.741 2 0 0
3 0.922 1 0 0
4 3.741 2 180 0

Improper Coeffs # umbrella

1 21 0

Atoms # full

3049 444 4 0.0000000000000000e+00 1.6631700000000000e+00 6.6849000000000003e-01 3.5892599999999999e+00 0 0 0
3051 444 4 0.0000000000000000e+00 1.6560500000000000e+00 2.4790000000000001e+00 1.8169999999999999e+00 0 0 0
3060 444 4 0.0000000000000000e+00 1.6560500000000000e+00 6.6205000000000003e-01 0.0000000000000000e+00 0 0 0
164 444 1 4.1499999999999998e-01 1.5556484172663017e+00 3.2906590687739889e+00 6.8629086898965568e+00 -2 -2 0
2151 444 1 4.1499999999999998e-01 8.6513277061964169e-02 1.1914652766071183e-01 6.5461973216221718e+00 3 0 0
165 444 1 4.1499999999999998e-01 1.9819379632218834e+00 1.8400918662466041e+00 6.7852701323233751e+00 -2 -2 0
2170 444 2 -8.2999999999999996e-01 1.5398732665876060e+00 1.7194324442027829e+00 1.5924604603329838e+01 -3 -3 0
358 444 2 -8.2999999999999996e-01 8.7193931863362384e-01 4.7455070626395640e-01 9.5140064656594614e+00 1 -1 0
2172 444 1 4.1499999999999998e-01 1.5573208133391874e+00 2.0639384267382956e+00 1.5031719773949741e+01 -3 -3 0
360 444 1 4.1499999999999998e-01 5.3806816980660852e-02 9.3016149021844152e-01 9.7122768120037684e+00 1 -1 0
1073 444 1 4.1499999999999998e-01 1.1574252007733088e+00 2.7225486487436217e+00 1.2904024655692764e+01 -1 -1 0
1072 444 2 -8.2999999999999996e-01 7.7992521692374173e-01 1.8934196121725915e+00 1.3197743306321927e+01 -1 -1 0
1484 444 1 4.1499999999999998e-01 1.8373489914996575e+00 1.6646227575100823e+00 9.8322434545030433e+00 2 5 0
2171 444 1 4.1499999999999998e-01 1.5591218831184663e+00 2.4971325009300154e+00 1.6482317785788982e+01 -3 -3 0
860 444 1 4.1499999999999998e-01 1.9973529122710540e+00 3.1388668728654783e+00 1.8638987469535653e+01 1 -3 0
106 444 2 -8.2999999999999996e-01 2.7672090930340976e-01 3.4497368207214629e+00 1.9110062245062895e+01 2 -4 0
1755 444 1 4.1499999999999998e-01 1.2585331817920624e+00 2.0462749261042013e-01 1.6561206797579143e+01 -2 0 0
3066 444 4 0.0000000000000000e+00 1.6560500000000000e+00 4.2959500000000004e+00 0.0000000000000000e+00 0 0 0
3067 444 4 0.0000000000000000e+00 1.6527000000000001e+00 4.2977600000000002e+00 3.5861299999999998e+00 0 0 0
3069 444 4 0.0000000000000000e+00 1.6560500000000000e+00 6.1128000000000000e+00 1.8169999999999999e+00 0 0 0
3086 444 4 0.0000000000000000e+00 1.6560500000000000e+00 7.9297500000000003e+00 0.0000000000000000e+00 0 0 0
3087 444 4 0.0000000000000000e+00 1.6883999999999999e+00 7.9463400000000002e+00 3.5836899999999998e+00 0 0 0
551 444 1 4.1499999999999998e-01 1.9106567710286633e+00 5.1690187441974018e+00 7.1479207471157133e+00 -1 -2 0
1360 444 2 -8.2999999999999996e-01 2.5635523975484265e-01 4.4488469847250247e+00 7.1081333476869553e+00 -1 -2 0
2978 444 1 4.1499999999999998e-01 1.2036330267504880e+00 4.9194829715121031e+00 1.2067184940270419e+01 0 3 0
937 444 2 -8.2999999999999996e-01 4.5397425829405674e-01 7.2738464565653222e+00 1.5367279029016304e+01 2 -1 0
2979 444 1 4.1499999999999998e-01 4.7085276938309745e-01 6.1962014161443770e+00 1.1713747134491213e+01 0 3 0
2977 444 2 -8.2999999999999996e-01 3.4368457391389573e-01 5.3370134587877249e+00 1.2116060683788271e+01 0 3 0
796 444 2 -8.2999999999999996e-01 8.8141081885256745e-01 7.8174678891858367e+00 1.0964092178300852e+01 -1 -1 0
2087 444 1 4.1499999999999998e-01 1.4500051114761936e-01 5.6632298459239374e+00 1.5103525865920165e+01 0 -5 0
938 444 1 4.1499999999999998e-01 5.1893608507304040e-02 7.5307092004324936e+00 1.4537469140998494e+01 2 -1 0
2088 444 1 4.1499999999999998e-01 1.2164010071917300e-01 4.8182235503579571e+00 1.3847614420716365e+01 0 -5 0
2651 444 1 4.1499999999999998e-01 1.1927334284941351e+00 6.3149504204890157e+00 1.9187289711113770e+01 1 3 0
3089 444 4 0.0000000000000000e+00 1.6560500000000000e+00 9.7467000000000006e+00 1.8169999999999999e+00 0 0 0
3107 444 4 0.0000000000000000e+00 1.6631700000000000e+00 1.1569990000000001e+01 3.5892599999999999e+00 0 0 0
3118 444 4 0.0000000000000000e+00 1.6560500000000000e+00 1.1563549999999999e+01 0.0000000000000000e+00 0 0 0
58 444 2 -8.2999999999999996e-01 1.6429268294558590e+00 1.0528825560893436e+01 6.8343734217475278e+00 3 -4 0
60 444 1 4.1499999999999998e-01 7.0901471527318227e-01 1.0662911740984844e+01 6.6729394897975389e+00 3 -4 0
59 444 1 4.1499999999999998e-01 1.9154956741516103e+00 1.1304403632597470e+01 7.3246962502179747e+00 3 -4 0
798 444 1 4.1499999999999998e-01 1.3879696352205440e+00 8.4086113961532511e+00 1.1521029670992966e+01 -1 -1 0
17 444 2 -8.2999999999999996e-01 2.0694204329241257e-02 9.0359691243442253e+00 8.6435933660832305e+00 6 2 0
19 444 1 4.1499999999999998e-01 7.3562745916747851e-01 9.0335416910076169e+00 8.0071213963978209e+00 6 2 0
1920 444 1 4.1499999999999998e-01 1.8180461601968727e+00 1.2206429628619494e+01 1.0041572019902075e+01 -6 1 0
797 444 1 4.1499999999999998e-01 5.6486493240024616e-01 8.3719829768814087e+00 1.0250969801147882e+01 -1 -1 0
990 444 1 4.1499999999999998e-01 1.4112010154388355e+00 1.0501626774288228e+01 1.9786217286444721e+01 3 -2 0
2229 444 1 4.1499999999999998e-01 1.5189387396567764e+00 9.8111443367657731e+00 1.6634925011213689e+01 2 4 0
989 444 1 4.1499999999999998e-01 1.9748147034827668e+00 1.1906111229630930e+01 1.9826941012934999e+01 3 -2 0
3109 444 4 0.0000000000000000e+00 1.6560500000000000e+00 1.3380500000000000e+01 1.8169999999999999e+00 0 0 0
3124 444 4 0.0000000000000000e+00 1.6560500000000000e+00 1.5197450000000000e+01 0.0000000000000000e+00 0 0 0
3125 444 4 0.0000000000000000e+00 1.6527000000000001e+00 1.5199260000000001e+01 3.5861299999999998e+00 0 0 0
490 444 2 -8.2999999999999996e-01 1.0836319232022946e+00 1.4711995158784857e+01 6.2293923833661040e+00 -2 -3 0
491 444 1 4.1499999999999998e-01 1.6144076572136294e+00 1.4107379471247530e+01 6.7479949406212176e+00 -2 -3 0
492 444 1 4.1499999999999998e-01 1.9335785401804634e-01 1.4366506042507952e+01 6.2948220751818358e+00 -2 -3 0
1218 444 1 4.1499999999999998e-01 8.4118821838888103e-01 1.3384550508539840e+01 1.3761835948814699e+01 -2 -6 0
1380 444 1 4.1499999999999998e-01 1.6782646572169881e+00 1.5994056573968074e+01 1.1795008057177665e+01 -1 -1 0
1001 444 1 4.1499999999999998e-01 6.1117490744033359e-02 1.5401934606701426e+01 9.5974226159196352e+00 4 0 0
1217 444 1 4.1499999999999998e-01 1.4210040140155955e+00 1.4752553397433555e+01 1.3471530910292730e+01 -2 -6 0
1216 444 2 -8.2999999999999996e-01 7.8138206096893514e-01 1.4303208795045613e+01 1.4023985139599493e+01 -2 -6 0
1378 444 2 -8.2999999999999996e-01 9.9570014084724845e-01 1.6245588304515199e+01 1.1172858866325742e+01 -1 -1 0
313 444 2 -8.2999999999999996e-01 5.2145289417905992e-02 1.2358716468115896e+01 1.0399002492475617e+01 2 1 0
569 444 1 4.1499999999999998e-01 9.5528511499586033e-01 1.5325746065442615e+01 1.7271798771930989e+01 1 3 0
568 444 2 -8.2999999999999996e-01 4.7860938789011342e-01 1.4626710034538240e+01 1.6824182054118040e+01 1 3 0
570 444 1 4.1499999999999998e-01 9.9281564283390256e-01 1.4452210630415458e+01 1.6035909445668558e+01 1 3 0
3127 444 4 0.0000000000000000e+00 1.6560500000000000e+00 1.7014299999999999e+01 1.8169999999999999e+00 0 0 0
3144 444 4 0.0000000000000000e+00 1.6560500000000000e+00 1.8831250000000001e+01 0.0000000000000000e+00 0 0 0
3145 444 4 0.0000000000000000e+00 1.6883999999999999e+00 1.8847840000000001e+01 3.5836899999999998e+00 0 0 0
2521 444 2 -8.2999999999999996e-01 1.6734922055052688e+00 1.9610485144964354e+01 6.6737543669640766e+00 0 1 0
2522 444 1 4.1499999999999998e-01 9.3748664215562194e-01 2.0211285882414050e+01 6.5572805651744597e+00 0 1 0
2960 444 1 4.1499999999999998e-01 1.8373476292693918e+00 1.6500737541939326e+01 6.4635815123862166e+00 -2 1 0
2599 444 2 -8.2999999999999996e-01 7.3151868473573600e-01 1.9004569564325799e+01 1.3428778976860496e+01 -1 -5 0
2687 444 1 4.1499999999999998e-01 7.9529309020851813e-01 1.8275905286282409e+01 9.5344432135449910e+00 3 2 0
2601 444 1 4.1499999999999998e-01 1.4904009217277325e-01 1.9422850221742429e+01 1.2794750083597112e+01 -1 -5 0
2600 444 1 4.1499999999999998e-01 1.7989842331532085e-01 1.8360742047069255e+01 1.3873113937432835e+01 -1 -5 0
2688 444 1 4.1499999999999998e-01 1.4588494823450462e-01 1.8819321003372409e+01 8.2795079804042526e+00 3 2 0
2686 444 2 -8.2999999999999996e-01 1.8079271402391552e-02 1.8741044536048751e+01 9.2249021698569216e+00 3 2 0
15 444 1 4.1499999999999998e-01 1.9119187923022556e+00 1.9043505812984773e+01 1.4766656407435079e+01 -3 1 0
1379 444 1 4.1499999999999998e-01 4.7874216425981775e-01 1.6904042089886474e+01 1.1636997817684168e+01 -1 -1 0
1860 444 1 4.1499999999999998e-01 4.5874462745722194e-01 1.8856315759447625e+01 1.6576554848823726e+01 1 -1 0
1859 444 1 4.1499999999999998e-01 3.2213410488820593e-01 1.8985141795111019e+01 1.8078765390107961e+01 1 -1 0
2455 444 2 -8.2999999999999996e-01 1.9699322248720481e+00 1.6725044784631724e+01 1.7394487134058799e+01 -3 -1 0
3147 444 4 0.0000000000000000e+00 1.6560500000000000e+00 2.0648199999999999e+01 1.8169999999999999e+00 0 0 0
3165 444 4 0.0000000000000000e+00 1.6631700000000000e+00 2.2471489999999999e+01 3.5892599999999999e+00 0 0 0
3167 444 4 0.0000000000000000e+00 1.6560500000000000e+00 2.4282000000000000e+01 1.8169999999999999e+00 0 0 0
3176 444 4 0.0000000000000000e+00 1.6560500000000000e+00 2.2465050000000002e+01 0.0000000000000000e+00 0 0 0
1338 444 1 4.1499999999999998e-01 1.7598343042377151e+00 2.4274793109468799e+01 6.4684739491948751e+00 -4 0 0
1686 444 1 4.1499999999999998e-01 1.3930222121794180e+00 2.1727553894028645e+01 9.2830372774910028e+00 0 -2 0
1998 444 1 4.1499999999999998e-01 1.5869030171448786e+00 2.1597163381190331e+01 1.4072352596978138e+01 2 1 0
1292 444 1 4.1499999999999998e-01 1.2777557515278204e-02 2.2456643787903833e+01 1.1040622735032631e+01 0 -1 0
2975 444 1 4.1499999999999998e-01 2.8635058568068344e-01 2.3651992703139353e+01 1.2957354819689785e+01 1 -2 0
1478 444 1 4.1499999999999998e-01 1.4046682741147216e+00 2.3754541416947994e+01 1.8498359100186047e+01 3 1 0
2849 444 1 4.1499999999999998e-01 4.1294579066976178e-01 2.2226333747117085e+01 1.6584016357489805e+01 6 1 0
1477 444 2 -8.2999999999999996e-01 1.1183159852183551e+00 2.4223156867198927e+01 1.9282344982884226e+01 3 1 0
3182 444 4 0.0000000000000000e+00 1.6560500000000000e+00 2.6098949999999999e+01 0.0000000000000000e+00 0 0 0
3183 444 4 0.0000000000000000e+00 1.6527000000000001e+00 2.6100760000000001e+01 3.5861299999999998e+00 0 0 0
3185 444 4 0.0000000000000000e+00 1.6560500000000000e+00 2.7915800000000001e+01 1.8169999999999999e+00 0 0 0
1337 444 1 4.1499999999999998e-01 1.1106648844547806e+00 2.5624316647882985e+01 6.6904202773449617e+00 -4 0 0
2266 444 2 -8.2999999999999996e-01 1.8114605214977708e+00 2.7261333740527764e+01 6.3266687426702033e+00 0 1 0
2268 444 1 4.1499999999999998e-01 1.8896138861136675e+00 2.8212276018239102e+01 6.4030400650244879e+00 0 1 0
1336 444 2 -8.2999999999999996e-01 9.6327440496237660e-01 2.4685466263980814e+01 6.8047350453259456e+00 -4 0 0
613 444 2 -8.2999999999999996e-01 2.8589668944141217e-01 2.8436487725080124e+01 9.2377740697138009e+00 0 -6 0
894 444 1 4.1499999999999998e-01 1.3906225315324614e+00 2.7251454138930736e+01 1.5707915694116418e+01 1 -1 0
892 444 2 -8.2999999999999996e-01 1.1962612191105091e+00 2.6354228218889226e+01 1.5436914906075511e+01 1 -1 0
1290 444 1 4.1499999999999998e-01 1.0675574422128518e+00 2.5783152330557190e+01 1.2430267926647975e+01 -2 2 0
615 444 1 4.1499999999999998e-01 5.3687278946829964e-01 2.8209618201423137e+01 8.3423563226851360e+00 0 -6 0
1289 444 1 4.1499999999999998e-01 8.8819026889428376e-01 2.5466635312410812e+01 1.3899804972668296e+01 -2 2 0
1288 444 2 -8.2999999999999996e-01 6.1657156769177479e-01 2.5185070472099749e+01 1.3026205362161541e+01 -2 2 0
893 444 1 4.1499999999999998e-01 3.3507670340734796e-01 2.6171285808723251e+01 1.5812582327016834e+01 1 -1 0
308 444 1 4.1499999999999998e-01 1.7186944438449996e+00 2.5932989872015636e+01 1.0500175769484388e+01 1 0 0
2035 444 2 -8.2999999999999996e-01 1.2927973269655724e+00 2.4598473417993794e+01 9.5110657041691695e+00 3 -5 0
2037 444 1 4.1499999999999998e-01 1.1113641733290305e+00 2.4599492365509168e+01 8.5712182009395157e+00 3 -5 0
1479 444 1 4.1499999999999998e-01 1.9109470641636443e+00 2.4646934327773923e+01 1.9611558352716688e+01 3 1 0
2963 444 1 4.1499999999999998e-01 1.4621103928292618e+00 2.6318292942747291e+01 1.8719948027428625e+01 1 1 0
2962 444 2 -8.2999999999999996e-01 7.3939075186861714e-01 2.6922460796570061e+01 1.8549976424148369e+01 1 1 0
3202 444 4 0.0000000000000000e+00 1.6560500000000000e+00 2.9732749999999999e+01 0.0000000000000000e+00 0 0 0
3203 444 4 0.0000000000000000e+00 1.6883999999999999e+00 2.9749340000000000e+01 3.5836899999999998e+00 0 0 0
3205 444 4 0.0000000000000000e+00 1.6560500000000000e+00 3.1549700000000001e+01 1.8169999999999999e+00 0 0 0
2071 444 2 -8.2999999999999996e-01 1.5707900047502084e+00 3.2578409489820658e+01 6.9063136021125722e+00 -1 -1 0
2639 444 1 4.1499999999999998e-01 1.8858252680747820e+00 3.0701501277068775e+01 6.7376468070951976e+00 -4 0 0
2072 444 1 4.1499999999999998e-01 1.4906820859416923e+00 3.2618440862397655e+01 7.8593151891448692e+00 -1 -1 0
1019 444 1 4.1499999999999998e-01 1.4315372621944558e+00 3.2630378740244261e+01 1.3208693926425369e+01 1 0 0
2782 444 2 -8.2999999999999996e-01 8.3802530357049831e-01 3.0636026339271691e+01 1.0610469579960084e+01 -2 -1 0
359 444 1 4.1499999999999998e-01 7.5004621320282705e-01 3.2299948547596060e+01 9.8725512523646444e+00 1 -2 0
2871 444 1 4.1499999999999998e-01 6.7285226181222968e-01 2.9552936265304002e+01 1.5467043350663639e+01 1 -4 0
2869 444 2 -8.2999999999999996e-01 1.3988313917731383e+00 2.9322150358285906e+01 1.4887453788477940e+01 1 -4 0
2784 444 1 4.1499999999999998e-01 1.7327809850725404e-01 3.0770423551444154e+01 1.1285955199867791e+01 -2 -1 0
2870 444 1 4.1499999999999998e-01 1.5363025925854281e+00 3.0103655105423474e+01 1.4352118439171001e+01 1 -4 0
2783 444 1 4.1499999999999998e-01 7.4803669010395601e-01 2.9715209936896720e+01 1.0365046613792565e+01 -2 -1 0
764 444 1 4.1499999999999998e-01 1.4360319577071992e+00 3.1651796762957165e+01 1.9583407528729200e+01 1 1 0
1753 444 2 -8.2999999999999996e-01 9.7998976809276850e-01 3.2012380312883124e+01 1.6746925981068440e+01 -2 -1 0
1754 444 1 4.1499999999999998e-01 1.5878027729631770e+00 3.1464556727238168e+01 1.6250252653142475e+01 -2 -1 0
3050 444 4 0.0000000000000000e+00 3.4729999999999999e+00 6.6205000000000003e-01 1.8169999999999999e+00 0 0 0
3074 444 4 0.0000000000000000e+00 3.4685899999999998e+00 2.4710999999999999e+00 3.5892599999999999e+00 0 0 0
3075 444 4 0.0000000000000000e+00 3.4729999999999999e+00 2.4790000000000001e+00 0.0000000000000000e+00 0 0 0
163 444 2 -8.2999999999999996e-01 2.3047094698936093e+00 2.7129605817160529e+00 7.0092142908264972e+00 -2 -2 0
488 444 1 4.1499999999999998e-01 3.6770279295357233e+00 3.4621860176572432e+00 6.6751408144068103e+00 -1 2 0
1485 444 1 4.1499999999999998e-01 2.4807411253271119e+00 2.4681088818180532e+00 8.7221300483886068e+00 2 5 0
1483 444 2 -8.2999999999999996e-01 2.4016568551756645e+00 2.4216161817136768e+00 9.6749238170212024e+00 2 5 0
2717 444 1 4.1499999999999998e-01 2.8048474348796804e+00 3.6245731115624844e+00 1.1132377057161532e+01 3 0 0
1898 444 1 4.1499999999999998e-01 3.5102902769707787e+00 3.3809003010816125e+00 1.4276636745592866e+01 1 1 0
1064 444 1 4.1499999999999998e-01 3.9400911757290147e+00 2.4307368903006132e+00 1.0018570483973091e+01 -2 1 0
1020 444 1 4.1499999999999998e-01 2.3833643048701090e+00 1.1653344305104411e-01 1.4370404258853284e+01 1 1 0
2294 444 1 4.1499999999999998e-01 3.6869083776936211e+00 3.8432764988528061e+00 1.9819919820613585e+01 1 0 0
1130 444 1 4.1499999999999998e-01 3.9059686302362655e+00 2.0248865236689286e+00 1.6851119963898135e+01 -4 1 0
859 444 2 -8.2999999999999996e-01 2.7790317711479009e+00 3.3773872364531665e+00 1.8140672283892872e+01 1 -3 0
3064 444 4 0.0000000000000000e+00 3.4729999999999999e+00 6.1128000000000000e+00 0.0000000000000000e+00 0 0 0
3065 444 4 0.0000000000000000e+00 3.4741700000000000e+00 6.1120599999999996e+00 3.5852599999999999e+00 0 0 0
3068 444 4 0.0000000000000000e+00 3.4729999999999999e+00 4.2959500000000004e+00 1.8169999999999999e+00 0 0 0
3088 444 4 0.0000000000000000e+00 3.4729999999999999e+00 7.9297500000000003e+00 1.8169999999999999e+00 0 0 0
552 444 1 4.1499999999999998e-01 3.3327987358286957e+00 5.1901214663950093e+00 6.6293048871314424e+00 -1 -2 0
1581 444 1 4.1499999999999998e-01 2.9147863875947837e+00 7.5399651256942093e+00 6.9379701596593204e+00 1 4 0
550 444 2 -8.2999999999999996e-01 2.6032633536046657e+00 5.7645468579403838e+00 6.8617831533819684e+00 -1 -2 0
2718 444 1 4.1499999999999998e-01 3.4525043090040732e+00 4.9478579662258930e+00 1.1480734255051935e+01 3 0 0
656 444 1 4.1499999999999998e-01 2.8155581660215039e+00 5.1938357131058881e+00 1.5982455840861304e+01 2 -4 0
1897 444 2 -8.2999999999999996e-01 3.0891363221774597e+00 4.2216201102930624e+00 1.4455665775746949e+01 1 1 0
2716 444 2 -8.2999999999999996e-01 2.7351010056151233e+00 4.3665669744312909e+00 1.1733053543452106e+01 3 0 0
1899 444 1 4.1499999999999998e-01 2.7891078183934788e+00 4.5268790873042208e+00 1.3599493097301126e+01 1 1 0
678 444 1 4.1499999999999998e-01 3.6596565310591345e+00 6.6591938889969748e+00 1.7926796709528798e+01 0 -1 0
861 444 1 4.1499999999999998e-01 2.6163941674387856e+00 4.2763220885526039e+00 1.7854845465833030e+01 1 -3 0
676 444 2 -8.2999999999999996e-01 3.9575739618810832e+00 7.1222807787391380e+00 1.8709757843921079e+01 0 -1 0
657 444 1 4.1499999999999998e-01 2.1088376527323303e+00 6.4520483807716307e+00 1.6439994782741998e+01 2 -4 0
655 444 2 -8.2999999999999996e-01 2.6495684378778228e+00 5.7292208807448457e+00 1.6758369439159942e+01 2 -4 0
677 444 1 4.1499999999999998e-01 3.1877999173445999e+00 7.1530448970862146e+00 1.9277854719007777e+01 0 -1 0
3084 444 4 0.0000000000000000e+00 3.4729999999999999e+00 9.7467000000000006e+00 0.0000000000000000e+00 0 0 0
3085 444 4 0.0000000000000000e+00 3.4742400000000000e+00 9.7598299999999991e+00 3.5896699999999999e+00 0 0 0
3108 444 4 0.0000000000000000e+00 3.4729999999999999e+00 1.1563549999999999e+01 1.8169999999999999e+00 0 0 0
1579 444 2 -8.2999999999999996e-01 3.3315208963364200e+00 8.4009732187200630e+00 6.9029132322351998e+00 1 4 0
1580 444 1 4.1499999999999998e-01 2.6038926037607277e+00 9.0162600719650978e+00 6.8122986889545754e+00 1 4 0
2580 444 1 4.1499999999999998e-01 3.4940832078009159e+00 1.2148805201748020e+01 6.8482512360643355e+00 -1 -2 0
2340 444 1 4.1499999999999998e-01 2.8761175466939406e+00 1.0346238465976224e+01 1.2231487754377458e+01 0 -1 0
1919 444 1 4.1499999999999998e-01 2.9581639065269130e+00 1.1217962639997234e+01 1.0163881460883214e+01 -6 1 0
1918 444 2 -8.2999999999999996e-01 2.7533258403250249e+00 1.2104092227842296e+01 9.8654731139055141e+00 -6 1 0
2338 444 2 -8.2999999999999996e-01 2.3149359392325031e+00 9.8751466887117658e+00 1.1615549583324208e+01 0 -1 0
2339 444 1 4.1499999999999998e-01 2.9189461353250414e+00 9.3370197706672240e+00 1.1103862690168469e+01 0 -1 0
1796 444 1 4.1499999999999998e-01 3.9172865219485442e+00 9.2828556343492643e+00 8.4664470672199581e+00 4 0 0
2227 444 2 -8.2999999999999996e-01 2.3705674758781061e+00 9.9425495729292432e+00 1.7051689994751857e+01 2 4 0
2228 444 1 4.1499999999999998e-01 2.9834412946578825e+00 1.0032973132280409e+01 1.6322004310494954e+01 2 4 0
1016 444 1 4.1499999999999998e-01 3.7193290271551604e+00 1.0383483247036216e+01 1.8324525626734111e+01 -2 4 0
3126 444 4 0.0000000000000000e+00 3.4729999999999999e+00 1.5197450000000000e+01 1.8169999999999999e+00 0 0 0
3132 444 4 0.0000000000000000e+00 3.4685899999999998e+00 1.3372600000000000e+01 3.5892599999999999e+00 0 0 0
3133 444 4 0.0000000000000000e+00 3.4729999999999999e+00 1.3380500000000000e+01 0.0000000000000000e+00 0 0 0
564 444 1 4.1499999999999998e-01 3.8920190509058519e+00 1.4329553194975377e+01 6.6003479194109165e+00 0 -5 0
2578 444 2 -8.2999999999999996e-01 3.2105793548270758e+00 1.2869995525163356e+01 7.4101603740332838e+00 -1 -2 0
563 444 1 4.1499999999999998e-01 3.7591895426871820e+00 1.5797169006927096e+01 6.2534248753083332e+00 0 -5 0
2579 444 1 4.1499999999999998e-01 3.3023606584820331e+00 1.2530858824112540e+01 8.3005503379224468e+00 -1 -2 0
2721 444 1 4.1499999999999998e-01 3.4607142236718063e+00 1.6040621163597415e+01 1.2432956961063169e+01 -2 -2 0
2720 444 1 4.1499999999999998e-01 3.4617830368841016e+00 1.4527409093750025e+01 1.2387314095374704e+01 -2 -2 0
2719 444 2 -8.2999999999999996e-01 2.9962261371322931e+00 1.5272942199382843e+01 1.2766351106621283e+01 -2 -2 0
303 444 1 4.1499999999999998e-01 3.3873082735267270e+00 1.5197494962629746e+01 1.4411189355782737e+01 1 2 0
301 444 2 -8.2999999999999996e-01 3.5588194584573727e+00 1.5410937970301720e+01 1.5328391151885086e+01 1 2 0
1343 444 1 4.1499999999999998e-01 3.8817952858940648e+00 1.2739796277994040e+01 1.0886234166140415e+01 4 0 0
302 444 1 4.1499999999999998e-01 2.8541381362558438e+00 1.6011676305989855e+01 1.5570816035737716e+01 1 2 0
1822 444 2 -8.2999999999999996e-01 3.1675435324632817e+00 1.3738462524610721e+01 1.9459360637945515e+01 0 -2 0
1823 444 1 4.1499999999999998e-01 3.9016893848522178e+00 1.3522973589483248e+01 1.8884185522414800e+01 0 -2 0
1824 444 1 4.1499999999999998e-01 3.1879511712034305e+00 1.4693041087818036e+01 1.9527159760428606e+01 0 -2 0
76 444 2 -8.2999999999999996e-01 2.9115782698281389e+00 1.6306425515654844e+01 1.9821502664132055e+01 -2 -5 0
3122 444 4 0.0000000000000000e+00 3.4729999999999999e+00 1.7014299999999999e+01 0.0000000000000000e+00 0 0 0
3123 444 4 0.0000000000000000e+00 3.4741700000000000e+00 1.7013559999999998e+01 3.5852599999999999e+00 0 0 0
3146 444 4 0.0000000000000000e+00 3.4729999999999999e+00 1.8831250000000001e+01 1.8169999999999999e+00 0 0 0
2523 444 1 4.1499999999999998e-01 2.4496185989418766e+00 2.0148926267400523e+01 6.5190261172420527e+00 0 1 0
2961 444 1 4.1499999999999998e-01 2.0554488538549078e+00 1.7987617612292706e+01 6.2805090146233287e+00 -2 1 0
2959 444 2 -8.2999999999999996e-01 2.5237719632236622e+00 1.7154246455149291e+01 6.3294907668812455e+00 -2 1 0
930 444 1 4.1499999999999998e-01 4.0084362961707862e+00 1.8159310304629987e+01 6.5276847662680062e+00 -3 -1 0
2637 444 1 4.1499999999999998e-01 3.8044343004643273e+00 1.7961164949539040e+01 1.0985465437439037e+01 2 -1 0
2240 444 1 4.1499999999999998e-01 2.7531599011921450e+00 1.9915259564966618e+01 1.0669208716947121e+01 0 -1 0
2239 444 2 -8.2999999999999996e-01 2.8162344532893613e+00 1.9207329794440088e+01 1.1310371275774353e+01 0 -1 0
1871 444 1 4.1499999999999998e-01 3.8940555287356169e+00 1.8435021170634325e+01 1.2963759329983688e+01 2 0 0
13 444 2 -8.2999999999999996e-01 2.2807939687186498e+00 1.8917599327799117e+01 1.5640905479687893e+01 -3 1 0
14 444 1 4.1499999999999998e-01 3.0946114523213786e+00 1.9421453001965158e+01 1.5632848800725277e+01 -3 1 0
2241 444 1 4.1499999999999998e-01 2.1510326684564762e+00 1.9417246071619022e+01 1.1965866231645292e+01 0 -1 0
1062 444 1 4.1499999999999998e-01 3.0375279062501712e+00 1.8773493619925151e+01 1.9267569871658303e+01 -2 -3 0
78 444 1 4.1499999999999998e-01 3.6419848608038392e+00 1.6898390022374095e+01 1.9641736730996637e+01 -2 -5 0
1060 444 2 -8.2999999999999996e-01 2.2238753272779790e+00 1.9221451244419026e+01 1.9036191296859407e+01 -2 -3 0
1061 444 1 4.1499999999999998e-01 2.4271035135298384e+00 2.0152068955158640e+01 1.9130430374081200e+01 -2 -3 0
2456 444 1 4.1499999999999998e-01 2.0570797528965596e+00 1.7537593515750295e+01 1.6896087320673374e+01 -3 -1 0
2457 444 1 4.1499999999999998e-01 2.3693010739190714e+00 1.6919571626949352e+01 1.8242364560644724e+01 -3 -1 0
3142 444 4 0.0000000000000000e+00 3.4729999999999999e+00 2.0648199999999999e+01 0.0000000000000000e+00 0 0 0
3143 444 4 0.0000000000000000e+00 3.4742400000000000e+00 2.0661330000000000e+01 3.5896699999999999e+00 0 0 0
3166 444 4 0.0000000000000000e+00 3.4729999999999999e+00 2.2465050000000002e+01 1.8169999999999999e+00 0 0 0
3190 444 4 0.0000000000000000e+00 3.4685899999999998e+00 2.4274100000000001e+01 3.5892599999999999e+00 0 0 0
3191 444 4 0.0000000000000000e+00 3.4729999999999999e+00 2.4282000000000000e+01 0.0000000000000000e+00 0 0 0
2302 444 2 -8.2999999999999996e-01 3.3199678982332896e+00 2.1676611593249678e+01 6.6153981261067036e+00 0 1 0
2161 444 2 -8.2999999999999996e-01 3.5658719085502231e+00 2.4241977448800981e+01 6.3263398213650479e+00 0 4 0
2304 444 1 4.1499999999999998e-01 3.1331334549919818e+00 2.2610616102517373e+01 6.5207392908198720e+00 0 1 0
1997 444 1 4.1499999999999998e-01 2.8389787200376304e+00 2.2433302866620945e+01 1.3914010376070667e+01 2 1 0
204 444 1 4.1499999999999998e-01 3.4564640054882174e+00 2.2295298848610891e+01 1.0047019262347106e+01 3 1 0
1996 444 2 -8.2999999999999996e-01 2.4402658905758301e+00 2.1765489507089953e+01 1.4471939936495749e+01 2 1 0
1685 444 1 4.1499999999999998e-01 2.3992478655004743e+00 2.0946824312991090e+01 8.4645836323078001e+00 0 -2 0
2036 444 1 4.1499999999999998e-01 2.1908854467581658e+00 2.4274943289077857e+01 9.5817611433980563e+00 3 -5 0
1684 444 2 -8.2999999999999996e-01 2.2288487939232451e+00 2.1265993185522330e+01 9.3507706134586677e+00 0 -2 0
148 444 2 -8.2999999999999996e-01 2.1709706098111390e+00 2.2329725341025377e+01 1.7424380093378836e+01 2 0 0
150 444 1 4.1499999999999998e-01 2.3923167070878195e+00 2.2234235738045136e+01 1.6498032221783458e+01 2 0 0
149 444 1 4.1499999999999998e-01 2.9852655870526403e+00 2.2617227156277867e+01 1.7837294893241971e+01 2 0 0
3180 444 4 0.0000000000000000e+00 3.4729999999999999e+00 2.7915800000000001e+01 0.0000000000000000e+00 0 0 0
3181 444 4 0.0000000000000000e+00 3.4741700000000000e+00 2.7915060000000000e+01 3.5852599999999999e+00 0 0 0
3184 444 4 0.0000000000000000e+00 3.4729999999999999e+00 2.6098949999999999e+01 1.8169999999999999e+00 0 0 0
2267 444 1 4.1499999999999998e-01 2.7116393934515521e+00 2.6954495178771818e+01 6.2182254906169101e+00 0 1 0
2162 444 1 4.1499999999999998e-01 3.5622325619202959e+00 2.5171602132608346e+01 6.5544101782405741e+00 0 4 0
2422 444 2 -8.2999999999999996e-01 3.7308362354000004e+00 2.5650412385111679e+01 1.5819664749503350e+01 -1 0 0
307 444 2 -8.2999999999999996e-01 2.1283688440092323e+00 2.6634742415760115e+01 1.1006082955021370e+01 1 0 0
12 444 1 4.1499999999999998e-01 3.3797814052110438e+00 2.6372195468617601e+01 1.2132761944396165e+01 -3 1 0
2423 444 1 4.1499999999999998e-01 2.7995255831822368e+00 2.5868903763988836e+01 1.5785697695675651e+01 -1 0 0
309 444 1 4.1499999999999998e-01 2.1861069507897755e+00 2.7369066740735420e+01 1.0394800814889903e+01 1 0 0
1881 444 1 4.1499999999999998e-01 3.8034554914884242e+00 2.5531281068971936e+01 1.9563068040403277e+01 -2 3 0
1879 444 2 -8.2999999999999996e-01 2.9576474635414169e+00 2.5945396095571134e+01 1.9734385168851912e+01 -2 3 0
3200 444 4 0.0000000000000000e+00 3.4729999999999999e+00 3.1549700000000001e+01 0.0000000000000000e+00 0 0 0
3201 444 4 0.0000000000000000e+00 3.4742400000000000e+00 3.1562830000000002e+01 3.5896699999999999e+00 0 0 0
3204 444 4 0.0000000000000000e+00 3.4729999999999999e+00 2.9732749999999999e+01 1.8169999999999999e+00 0 0 0
2638 444 2 -8.2999999999999996e-01 2.4282180101583890e+00 2.9916023328866508e+01 6.8088277617896482e+00 -4 0 0
2640 444 1 4.1499999999999998e-01 3.3231578248884492e+00 3.0229777916854800e+01 6.6789306985685339e+00 -4 0 0
2073 444 1 4.1499999999999998e-01 2.5139448572623064e+00 3.2547792375299196e+01 6.7458354446264659e+00 -1 -1 0
714 444 1 4.1499999999999998e-01 3.2432282753344550e+00 3.1242240528697355e+01 1.2153889851170096e+01 -4 2 0
1787 444 1 4.1499999999999998e-01 3.2454384742971043e+00 2.9836062574388034e+01 8.6623504797618889e+00 2 -4 0
1786 444 2 -8.2999999999999996e-01 3.2054393079044141e+00 3.0144060920091913e+01 9.5677614230765986e+00 2 -4 0
1788 444 1 4.1499999999999998e-01 2.3048036440855846e+00 3.0448920722537554e+01 9.6779814329549723e+00 2 -4 0
713 444 1 4.1499999999999998e-01 3.8577526081140410e+00 3.0518831141736886e+01 1.0974511337236123e+01 -4 2 0
712 444 2 -8.2999999999999996e-01 4.0360863690384967e+00 3.0782886102816999e+01 1.1877120812786558e+01 -4 2 0
1018 444 2 -8.2999999999999996e-01 2.0997468216069182e+00 3.2176399675964035e+01 1.3722144603888969e+01 1 0 0
2669 444 1 4.1499999999999998e-01 2.1666627916217789e+00 2.8987451441857470e+01 1.8634896193197243e+01 -2 0 0
2668 444 2 -8.2999999999999996e-01 3.0100474382220761e+00 2.9381412826128724e+01 1.8411897004416186e+01 -2 0 0
2670 444 1 4.1499999999999998e-01 3.4759476140642893e+00 2.8696009418987170e+01 1.7932948823710873e+01 -2 0 0
2168 444 1 4.1499999999999998e-01 3.7725049006244440e+00 3.0918392174081838e+01 1.8197317502879109e+01 2 -6 0
3054 444 4 0.0000000000000000e+00 5.2898399999999999e+00 6.6205000000000003e-01 0.0000000000000000e+00 0 0 0
3055 444 4 0.0000000000000000e+00 5.2786499999999998e+00 6.5963000000000005e-01 3.5897000000000001e+00 0 0 0
3057 444 4 0.0000000000000000e+00 5.2898399999999999e+00 2.4790000000000001e+00 1.8169999999999999e+00 0 0 0
116 444 1 4.1499999999999998e-01 4.6817045800057713e+00 9.5333593557728580e-01 6.7020192375039311e+00 -1 2 0
489 444 1 4.1499999999999998e-01 5.1714268588491388e+00 3.4160065985211694e+00 6.9129098069977752e+00 -1 2 0