Created by /appl/scripts/createLammpsInput.pl on Fri Jul 16 20:35:09 2021

        3477 atoms
        2012 bonds
        1012 angles
          12 dihedrals
           9 impropers

          11 atom types
           5 bond types
           5 angle types
           4 dihedral types
           1 improper types

           0.000000  30.466200 xlo xhi
           0.000000  35.179200 ylo yhi
           0.000000  65.000000 zlo zhi

Masses

    1   1.0079 
    2  15.9994 
    3  39.0983 
    4 107.8682 
    5  15.9994 
    6  12.0110 
    7  12.0110 
    8  15.9994 
    9  15.9994 
   10  15.9994 
   11   1.0079 
                

Bond Coeffs

    1             450          0.9572 # HW OW 
    2             570           1.229 # C1 O2 
    3             450           1.364 # C1 O4 
    4             570           1.229 # C1 O3 
    5             553           0.945 # O4 H5                 

Angle Coeffs

    1             100          123.32 # O2 C1 O4 
    2              85             124 # O2 C1 O3 
    3              55          104.52 # HW OW HW 
    4              35             113 # C1 O4 H5 
    5             100          123.32 # O3 C1 O4                 

Dihedral Coeffs

    1           0.922               1             180               0               # O2 C1 O4 H5 
    2           3.741               2               0               0               # 1O2 C1 O4 H5 
    3           0.922               1               0               0               # O3 C1 O4 H5 
    4           3.741               2             180               0               # 1O3 C1 O4 H5                 

Improper Coeffs

    1              21               0 # C1 X X X 

Atoms

       1      444        3     1.00000    7.80362   25.09357   11.95853    0    0    0
       2      444        3     1.00000   18.26350   28.93238   10.72715    0    0    0
       3      444        3     1.00000    6.99410   15.61981   12.09744    0    0    0
       4      444        7     1.08000    2.70910   10.02504   11.12427    0    0    0
       5      444        8    -0.86000    3.73751   10.48072   11.60596    0    0    0
       6      444        9    -0.80000    2.22140    8.97775   11.52957    0    0    0
       7      444       10    -0.78000    2.12363   10.71414   10.12636    0    0    0
       8      444       11     0.36000    2.70373   11.44770   10.03551    0    0    0
       9      444        7     1.08000    9.18751   28.20487   13.94739    0    0    0
      10      444        8    -0.86000   10.36960   28.49567   14.07124    0    0    0
      11      444        9    -0.80000    8.48991   28.71533   13.08035    0    0    0
      12      444       10    -0.78000    8.67060   27.29943   14.79973    0    0    0
      13      444       11     0.36000    9.41630   27.09177   15.33231    0    0    0
      14      444        7     1.08000   17.39519   15.54279   12.48058    0    0    0
      15      444        8    -0.86000   18.14090   15.20956   13.39166    0    0    0
      16      444        9    -0.80000   16.63034   14.74448   11.95461    0    0    0
      17      444       10    -0.78000   17.44012   16.82412   12.06866    0    0    0
      18      444       11     0.36000   18.09619   17.18399   12.63693    0    0    0
      19      444        2    -0.83000    2.53607   -0.78246   30.95731    0    0    0
      20      444        1     0.41500    2.62413   -1.59575   30.46026    0    0    0
      21      444        1     0.41500    3.41813   -0.41088   30.96777    0    0    0
      22      444        2    -0.83000   19.43724   30.97755   19.27407    0    0    0
      23      444        1     0.41500   19.37374   30.27155   18.63082    0    0    0
      24      444        1     0.41500   20.08981   31.57583   18.91010    0    0    0
      25      444        2    -0.83000   25.94950   25.31568   10.72579    0    0    0
      26      444        1     0.41500   26.15334   26.19087   10.39603    0    0    0
      27      444        1     0.41500   25.76052   24.80148    9.94087    0    0    0
      28      444        2    -0.83000   23.77985   23.78140   11.62520    0    0    0
      29      444        1     0.41500   23.92593   23.11421   12.29583    0    0    0
      30      444        1     0.41500   24.46339   23.62133   10.97452    0    0    0
      31      444        2    -0.83000   19.81327   14.33497   28.19751    0    0    0
      32      444        1     0.41500   19.30414   15.13738   28.31218    0    0    0
      33      444        1     0.41500   19.21924   13.63356   28.46473    0    0    0
      34      444        2    -0.83000    1.94199   -0.09667   22.94128    0    0    0
      35      444        1     0.41500    1.09784   -0.33703   22.55936    0    0    0
      36      444        1     0.41500    2.09630    0.79816   22.63851    0    0    0
      37      444        2    -0.83000   25.79864   10.63286   14.49643    0    0    0
      38      444        1     0.41500   25.21938    9.92790   14.20702    0    0    0
      39      444        1     0.41500   26.10427   11.04029   13.68598    0    0    0
      40      444        2    -0.83000   25.43604   22.37436   24.77051    0    0    0
      41      444        1     0.41500   25.99803   21.99178   24.09668    0    0    0
      42      444        1     0.41500   24.56161   22.03915   24.57243    0    0    0
      43      444        2    -0.83000   15.51527   27.64192   33.53936    0    0    0
      44      444        1     0.41500   15.26877   27.38137   32.65189    0    0    0
      45      444        1     0.41500   16.18632   27.00999   33.79732    0    0    0
      46      444        2    -0.83000    8.95066    9.71318   10.77011    0    0    0
      47      444        1     0.41500    8.93552    8.80165   10.47834    0    0    0
      48      444        1     0.41500    9.86221    9.87146   11.01559    0    0    0
      49      444        2    -0.83000    7.36973    2.26455   16.37182    0    0    0
      50      444        1     0.41500    7.99751    2.82528   15.91609    0    0    0
      51      444        1     0.41500    7.90587    1.73272   16.96000    0    0    0
      52      444        2    -0.83000   20.05587    1.89952   10.71786    0    0    0
      53      444        1     0.41500   19.49150    2.60124   10.39333    0    0    0
      54      444        1     0.41500   19.96075    1.19780   10.07384    0    0    0
      55      444        2    -0.83000   20.07799    0.07551   14.02698    0    0    0
      56      444        1     0.41500   20.86073   -0.45001   13.86129    0    0    0
      57      444        1     0.41500   20.31961    0.64124   14.76034    0    0    0
      58      444        2    -0.83000   14.18343   19.44153   18.92483    0    0    0
      59      444        1     0.41500   13.34970   19.05823   19.19720    0    0    0
      60      444        1     0.41500   14.80787   19.15679   19.59210    0    0    0
      61      444        2    -0.83000   15.00483   30.38633   13.99857    0    0    0
      62      444        1     0.41500   15.22838   31.06030   14.64046    0    0    0
      63      444        1     0.41500   14.09924   30.15218   14.20193    0    0    0
      64      444        2    -0.83000   14.62219    9.01451   29.81195    0    0    0
      65      444        1     0.41500   14.29958    9.45535   30.59796    0    0    0
      66      444        1     0.41500   15.57496    9.08523   29.87107    0    0    0
      67      444        2    -0.83000   13.38462   21.97256   14.35385    0    0    0
      68      444        1     0.41500   12.92518   21.23809   13.94677    0    0    0
      69      444        1     0.41500   13.46336   21.72539   15.27522    0    0    0
      70      444        2    -0.83000    8.71425   30.02750   31.59485    0    0    0
      71      444        1     0.41500    8.71141   30.09123   30.63976    0    0    0
      72      444        1     0.41500    8.87656   30.92196   31.89460    0    0    0
      73      444        2    -0.83000   26.13645   15.70079   24.37084    0    0    0
      74      444        1     0.41500   26.85261   15.06894   24.43498    0    0    0
      75      444        1     0.41500   25.56008   15.34254   23.69580    0    0    0
      76      444        2    -0.83000   -1.01310    3.54407   13.50836    0    0    0
      77      444        1     0.41500   -0.64882    3.69599   14.38041    0    0    0
      78      444        1     0.41500   -0.45132    4.05081   12.92196    0    0    0
      79      444        2    -0.83000    8.43166    5.41500   31.39248    0    0    0
      80      444        1     0.41500    7.54636    5.75959   31.27528    0    0    0
      81      444        1     0.41500    8.34872    4.47695   31.22097    0    0    0
      82      444        2    -0.83000    5.18933   28.98928   23.16942    0    0    0
      83      444        1     0.41500    5.54931   28.16260   22.84811    0    0    0
      84      444        1     0.41500    4.80827   29.40241   22.39457    0    0    0
      85      444        2    -0.83000   22.27621   28.68227   15.34449    0    0    0
      86      444        1     0.41500   22.50928   28.03516   16.01020    0    0    0
      87      444        1     0.41500   23.10788   29.09215   15.10667    0    0    0
      88      444        2    -0.83000    7.00177   15.40144   18.20069    0    0    0
      89      444        1     0.41500    7.21681   15.91853   17.42440    0    0    0
      90      444        1     0.41500    7.85081   15.16039   18.57119    0    0    0
      91      444        2    -0.83000   10.22093   11.07809   22.47023    0    0    0
      92      444        1     0.41500   11.14091   10.84335   22.59175    0    0    0
      93      444        1     0.41500    9.93535   11.38328   23.33137    0    0    0
      94      444        2    -0.83000   25.97796   31.98504   14.41113    0    0    0
      95      444        1     0.41500   25.62376   32.41965   13.63530    0    0    0
      96      444        1     0.41500   25.20773   31.65610   14.87456    0    0    0
      97      444        2    -0.83000   15.59428   31.30858   27.95871    0    0    0
      98      444        1     0.41500   15.73592   31.89563   28.70138    0    0    0
      99      444        1     0.41500   14.81262   30.80861   28.19370    0    0    0
     100      444        2    -0.83000   13.84756   22.08651   30.23932    0    0    0
     101      444        1     0.41500   13.80035   22.64660   29.46453    0    0    0
     102      444        1     0.41500   14.45060   22.54099   30.82759    0    0    0
     103      444        2    -0.83000   19.97363   17.47484   35.73622    0    0    0
     104      444        1     0.41500   19.29181   17.43410   35.06559    0    0    0
     105      444        1     0.41500   20.62919   16.83838   35.45092    0    0    0
     106      444        2    -0.83000    0.95007   25.26618   27.86844    0    0    0
     107      444        1     0.41500    1.30649   26.01374   27.38848    0    0    0
     108      444        1     0.41500    0.03105   25.22707   27.60361    0    0    0
     109      444        2    -0.83000   26.50983   27.02246    8.19087    0    0    0
     110      444        1     0.41500   26.72908   26.78399    7.29012    0    0    0
     111      444        1     0.41500   26.71853   27.95476    8.24985    0    0    0
     112      444        2    -0.83000    1.50218   19.86832   11.28488    0    0    0
     113      444        1     0.41500    1.00769   20.67641   11.42164    0    0    0
     114      444        1     0.41500    1.01670   19.20415   11.77417    0    0    0
     115      444        2    -0.83000   11.69363   20.79598   28.96894    0    0    0
     116      444        1     0.41500   10.79308   20.73332   28.65066    0    0    0
     117      444        1     0.41500   11.99983   19.88971   29.00272    0    0    0
     118      444        2    -0.83000    4.02932   27.71006   31.81680    0    0    0
     119      444        1     0.41500    4.17258   28.65237   31.90475    0    0    0
     120      444        1     0.41500    3.08877   27.62380   31.66139    0    0    0
     121      444        2    -0.83000   19.38178    2.40120   24.19890    0    0    0
     122      444        1     0.41500   20.13505    2.85763   24.57378    0    0    0
     123      444        1     0.41500   18.70397    2.46377   24.87187    0    0    0
     124      444        2    -0.83000    7.30100   19.74764   20.55422    0    0    0
     125      444        1     0.41500    8.21694   19.89859   20.32084    0    0    0
     126      444        1     0.41500    7.06017   20.50726   21.08453    0    0    0
     127      444        2    -0.83000    5.84600   32.73514   11.54903    0    0    0
     128      444        1     0.41500    4.94045   32.89331   11.28220    0    0    0
     129      444        1     0.41500    5.98307   31.80107   11.39096    0    0    0
     130      444        2    -0.83000    5.97523    9.11931   20.70231    0    0    0
     131      444        1     0.41500    6.40352    9.93940   20.94780    0    0    0
     132      444        1     0.41500    5.14988    9.39052   20.30045    0    0    0
     133      444        2    -0.83000   19.83686    6.06228   17.41625    0    0    0
     134      444        1     0.41500   19.49128    6.02913   16.52421    0    0    0
     135      444        1     0.41500   20.07472    5.15669   17.61528    0    0    0
     136      444        2    -0.83000   11.11384   16.94364   18.67042    0    0    0
     137      444        1     0.41500   11.53820   16.40530   19.33853    0    0    0
     138      444        1     0.41500   11.83724   17.36805   18.20909    0    0    0
     139      444        2    -0.83000   10.74861   21.02205   11.58030    0    0    0
     140      444        1     0.41500   11.28917   21.77344   11.82424    0    0    0
     141      444        1     0.41500   11.37782   20.33809   11.35108    0    0    0
     142      444        2    -0.83000    1.80835   27.29595   10.66416    0    0    0
     143      444        1     0.41500    0.91648   27.09264   10.38227    0    0    0
     144      444        1     0.41500    1.85697   28.25153   10.63594    0    0    0
     145      444        2    -0.83000    9.47991   10.74761   28.24276    0    0    0
     146      444        1     0.41500    8.79764   10.08481   28.34981    0    0    0
     147      444        1     0.41500   10.25713   10.25233   27.98411    0    0    0
     148      444        2    -0.83000   20.35798   32.91078   32.49873    0    0    0
     149      444        1     0.41500   20.60462   32.61207   31.62338    0    0    0
     150      444        1     0.41500   19.40116   32.88421   32.50063    0    0    0
     151      444        2    -0.83000   23.71152    7.17578   12.55256    0    0    0
     152      444        1     0.41500   23.71400    8.03391   12.97664    0    0    0
     153      444        1     0.41500   22.81976    7.07520   12.21963    0    0    0
     154      444        2    -0.83000   19.85198   27.57741   28.55025    0    0    0
     155      444        1     0.41500   19.96957   27.09177   29.36669    0    0    0
     156      444        1     0.41500   20.71532   27.94656   28.36415    0    0    0
     157      444        2    -0.83000   26.01932    2.79797   34.67561    0    0    0
     158      444        1     0.41500   26.95403    2.72758   34.86960    0    0    0
     159      444        1     0.41500   25.85571    3.73951   34.62138    0    0    0
     160      444        2    -0.83000   13.91515    1.37544   17.05589    0    0    0
     161      444        1     0.41500   13.73192    0.71482   17.72390    0    0    0
     162      444        1     0.41500   14.59259    0.98034   16.50711    0    0    0
     163      444        2    -0.83000   13.19738    0.39025   26.11821    0    0    0
     164      444        1     0.41500   12.53905   -0.00949   25.54983    0    0    0
     165      444        1     0.41500   13.94486    0.55228   25.54267    0    0    0
     166      444        2    -0.83000   22.19729   25.80149   26.75442    0    0    0
     167      444        1     0.41500   21.84527   24.91660   26.85063    0    0    0
     168      444        1     0.41500   21.43177   26.37259   26.81865    0    0    0
     169      444        2    -0.83000   10.30105    3.14068    8.50884    0    0    0
     170      444        1     0.41500   10.38912    3.92281    9.05359    0    0    0
     171      444        1     0.41500    9.41818    3.20052    8.14391    0    0    0
     172      444        2    -0.83000    1.11560   21.36539   21.24614    0    0    0
     173      444        1     0.41500    1.27433   20.91988   20.41391    0    0    0
     174      444        1     0.41500    1.50816   20.79167   21.90416    0    0    0
     175      444        2    -0.83000   19.63174   19.38785   26.65911    0    0    0
     176      444        1     0.41500   20.38981   19.95189   26.81225    0    0    0
     177      444        1     0.41500   20.00727   18.54565   26.40237    0    0    0
     178      444        2    -0.83000    8.70845   17.23705   11.66185    0    0    0
     179      444        1     0.41500    9.47392   17.70552   11.99475    0    0    0
     180      444        1     0.41500    9.06989   16.46303   11.22999    0    0    0
     181      444        2    -0.83000   18.13885   19.49504   29.44921    0    0    0
     182      444        1     0.41500   18.09659   20.17365   30.12297    0    0    0
     183      444        1     0.41500   17.43211   19.71503   28.84232    0    0    0
     184      444        2    -0.83000    2.09062   16.40300   30.20664    0    0    0
     185      444        1     0.41500    1.72523   16.89686   30.94070    0    0    0
     186      444        1     0.41500    2.34925   15.56363   30.58716    0    0    0
     187      444        2    -0.83000    2.65748   12.65974   31.84878    0    0    0
     188      444        1     0.41500    3.09435   11.86726   32.16079    0    0    0
     189      444        1     0.41500    2.82228   13.30947   32.53211    0    0    0
     190      444        2    -0.83000    7.64238   10.22150   25.47720    0    0    0
     191      444        1     0.41500    7.77796   11.16885   25.49787    0    0    0
     192      444        1     0.41500    8.47184    9.86729   25.15664    0    0    0
     193      444        2    -0.83000   19.85925   13.55262    9.89193    0    0    0
     194      444        1     0.41500   19.34104   13.17666    9.18032    0    0    0
     195      444        1     0.41500   20.14281   14.40387    9.55851    0    0    0
     196      444        2    -0.83000   18.70597   -1.44141   12.76897    0    0    0
     197      444        1     0.41500   18.77575   -2.29932   12.35019    0    0    0
     198      444        1     0.41500   17.79300   -1.38559   13.05103    0    0    0
     199      444        2    -0.83000   26.01561   19.93740   33.18457    0    0    0
     200      444        1     0.41500   26.01890   20.67929   33.78938    0    0    0
     201      444        1     0.41500   26.17272   20.32794   32.32489    0    0    0
     202      444        2    -0.83000    4.05494   20.45987   10.77439    0    0    0
     203      444        1     0.41500    3.80258   20.46857    9.85108    0    0    0
     204      444        1     0.41500    3.26045   20.19479   11.23780    0    0    0
     205      444        2    -0.83000   16.00533    2.58780   30.28803    0    0    0
     206      444        1     0.41500   15.23243    2.64265   30.85008    0    0    0
     207      444        1     0.41500   16.73966    2.78312   30.87013    0    0    0
     208      444        2    -0.83000   17.12162   25.31201   16.06524    0    0    0
     209      444        1     0.41500   17.87965   25.12047   16.61746    0    0    0
     210      444        1     0.41500   16.60070   24.50923   16.08593    0    0    0
     211      444        2    -0.83000   20.83886    4.19359   20.43332    0    0    0
     212      444        1     0.41500   21.78937    4.23554   20.32841    0    0    0
     213      444        1     0.41500   20.50162    4.85902   19.83356    0    0    0
     214      444        2    -0.83000   26.75597    0.68414   20.98571    0    0    0
     215      444        1     0.41500   27.16697    0.85565   20.13841    0    0    0
     216      444        1     0.41500   26.79718    1.52216   21.44646    0    0    0
     217      444        2    -0.83000    5.74604   27.30019    8.73703    0    0    0
     218      444        1     0.41500    5.00613   27.87643    8.54539    0    0    0
     219      444        1     0.41500    6.44602   27.89202    9.01272    0    0    0
     220      444        2    -0.83000   15.89604   11.91948   11.43811    0    0    0
     221      444        1     0.41500   16.26725   11.42120   12.16623    0    0    0
     222      444        1     0.41500   15.15907   11.38897   11.13531    0    0    0
     223      444        2    -0.83000    5.03892    1.12298    9.51241    0    0    0
     224      444        1     0.41500    4.24427    1.20196    8.98462    0    0    0
     225      444        1     0.41500    5.61664    1.81030    9.18067    0    0    0
     226      444        2    -0.83000   14.40086   30.11114   16.55471    0    0    0
     227      444        1     0.41500   15.26744   30.35281   16.88161    0    0    0
     228      444        1     0.41500   13.80851   30.30021   17.28246    0    0    0
     229      444        2    -0.83000   27.36982    4.89469   11.80313    0    0    0
     230      444        1     0.41500   26.95842    4.50779   12.57599    0    0    0
     231      444        1     0.41500   27.32869    5.83860   11.95655    0    0    0
     232      444        2    -0.83000    5.98233   28.49435   30.02592    0    0    0
     233      444        1     0.41500    6.71081   27.88348   30.13726    0    0    0
     234      444        1     0.41500    5.23397   28.05071   30.42508    0    0    0
     235      444        2    -0.83000    8.17700   22.63040   32.02501    0    0    0
     236      444        1     0.41500    8.22001   21.81412   32.52305    0    0    0
     237      444        1     0.41500    7.57097   22.44259   31.30826    0    0    0
     238      444        2    -0.83000   20.47794   19.10896   20.37884    0    0    0
     239      444        1     0.41500   19.98210   18.30235   20.51933    0    0    0
     240      444        1     0.41500   21.14451   18.87171   19.73415    0    0    0
     241      444        2    -0.83000   14.26298   13.96619   10.20633    0    0    0
     242      444        1     0.41500   15.19443   13.95388   10.42650    0    0    0
     243      444        1     0.41500   13.82189   13.70433   11.01447    0    0    0
     244      444        2    -0.83000   23.15512   29.95822   20.02085    0    0    0
     245      444        1     0.41500   23.44217   30.01399   20.93231    0    0    0
     246      444        1     0.41500   23.86427   30.36228   19.52079    0    0    0
     247      444        2    -0.83000   11.21004   23.93797   26.14252    0    0    0
     248      444        1     0.41500   11.15285   23.03152   25.84028    0    0    0
     249      444        1     0.41500   10.82810   24.45257   25.43150    0    0    0
     250      444        2    -0.83000    4.58482    1.61207   25.03702    0    0    0
     251      444        1     0.41500    4.77600    2.52610   24.82666    0    0    0
     252      444        1     0.41500    3.85360    1.38181   24.46386    0    0    0
     253      444        2    -0.83000   19.26450   16.32400   30.46962    0    0    0
     254      444        1     0.41500   19.20513   16.01768   31.37453    0    0    0
     255      444        1     0.41500   19.66706   17.18994   30.53529    0    0    0
     256      444        2    -0.83000   10.81358   26.98647   16.27296    0    0    0
     257      444        1     0.41500   11.22167   26.16788   15.99077    0    0    0
     258      444        1     0.41500   10.65546   27.46813   15.46103    0    0    0
     259      444        2    -0.83000   29.62913   15.07349   11.40193    0    0    0
     260      444        1     0.41500   29.75747   15.91920   11.83154    0    0    0
     261      444        1     0.41500   29.02106   15.25781   10.68603    0    0    0
     262      444        2    -0.83000   12.87888   10.12920   20.86486    0    0    0
     263      444        1     0.41500   13.32187   10.14200   21.71331    0    0    0
     264      444        1     0.41500   13.24237   10.87853   20.39303    0    0    0
     265      444        2    -0.83000   24.90985    7.31031   14.82684    0    0    0
     266      444        1     0.41500   25.75816    7.68408   15.06538    0    0    0
     267      444        1     0.41500   24.84948    7.43704   13.87998    0    0    0
     268      444        2    -0.83000   24.24898   16.62115   35.10542    0    0    0
     269      444        1     0.41500   24.32515   16.26645   35.99123    0    0    0
     270      444        1     0.41500   25.12924   16.93282   34.89519    0    0    0
     271      444        2    -0.83000    5.75639   26.30853   22.95138    0    0    0
     272      444        1     0.41500    5.77225   26.28188   23.90810    0    0    0
     273      444        1     0.41500    6.65343   26.09979   22.69062    0    0    0
     274      444        2    -0.83000   -0.69321    0.33973   35.80395    0    0    0
     275      444        1     0.41500   -1.03978    1.14329   35.41608    0    0    0
     276      444        1     0.41500   -1.35307   -0.32536   35.60787    0    0    0
     277      444        2    -0.83000    3.33916   25.02280   27.87639    0    0    0
     278      444        1     0.41500    3.53700   24.24244   28.39425    0    0    0
     279      444        1     0.41500    3.81884   25.72757   28.31160    0    0    0
     280      444        2    -0.83000   17.83613    9.84460   17.83190    0    0    0
     281      444        1     0.41500   17.37913    9.14737   18.30229    0    0    0
     282      444        1     0.41500   18.65199    9.96681   18.31734    0    0    0
     283      444        2    -0.83000   13.82310    3.07644   23.83354    0    0    0
     284      444        1     0.41500   14.54745    2.58904   24.22601    0    0    0
     285      444        1     0.41500   13.77817    2.75570   22.93281    0    0    0
     286      444        2    -0.83000    1.42206   13.01573   11.22466    0    0    0
     287      444        1     0.41500    2.10189   13.67453   11.08303    0    0    0
     288      444        1     0.41500    0.62485   13.52274   11.37828    0    0    0
     289      444        2    -0.83000   17.52734   21.79520   31.00354    0    0    0
     290      444        1     0.41500   17.17504   22.49197   30.44979    0    0    0
     291      444        1     0.41500   16.75445   21.33694   31.33350    0    0    0
     292      444        2    -0.83000   12.23891   15.59316   16.94706    0    0    0
     293      444        1     0.41500   11.44469   15.17892   17.28456    0    0    0
     294      444        1     0.41500   12.95480   15.07738   17.31812    0    0    0
     295      444        2    -0.83000   -0.65047   25.30069   33.68981    0    0    0
     296      444        1     0.41500   -0.34372   26.16665   33.95868    0    0    0
     297      444        1     0.41500   -0.08444   24.68879   34.16032    0    0    0
     298      444        2    -0.83000    0.42312    9.99841   28.13019    0    0    0
     299      444        1     0.41500    0.54693   10.94144   28.02258    0    0    0
     300      444        1     0.41500   -0.52478    9.87388   28.08331    0    0    0
     301      444        2    -0.83000   -0.25032    8.29730   23.75009    0    0    0
     302      444        1     0.41500   -0.17239    8.34508   24.70292    0    0    0
     303      444        1     0.41500   -1.07355    8.74459   23.55393    0    0    0
     304      444        2    -0.83000   25.36727    3.10371    7.21071    0    0    0
     305      444        1     0.41500   25.64546    2.66565    6.40637    0    0    0
     306      444        1     0.41500   25.82815    2.63867    7.90896    0    0    0
     307      444        2    -0.83000   16.48077    3.51385   20.34412    0    0    0
     308      444        1     0.41500   17.11982    2.80636   20.25839    0    0    0
     309      444        1     0.41500   15.71889    3.21016   19.85065    0    0    0
     310      444        2    -0.83000   -0.45608    5.03943   11.57628    0    0    0
     311      444        1     0.41500   -1.12558    4.38109   11.76226    0    0    0
     312      444        1     0.41500   -0.13125    4.81189   10.70508    0    0    0
     313      444        2    -0.83000    2.28329   17.60090   11.07319    0    0    0
     314      444        1     0.41500    1.46789   18.04758   11.30093    0    0    0
     315      444        1     0.41500    2.69142   18.16610   10.41728    0    0    0
     316      444        2    -0.83000   10.17090    8.04892   33.57408    0    0    0
     317      444        1     0.41500    9.61372    7.48177   33.04104    0    0    0
     318      444        1     0.41500   10.56377    8.65671   32.94764    0    0    0
     319      444        2    -0.83000    9.09792    4.26369   26.65882    0    0    0
     320      444        1     0.41500   10.04712    4.38475   26.63399    0    0    0
     321      444        1     0.41500    8.74604    5.14735   26.76635    0    0    0
     322      444        2    -0.83000   17.29629    9.75139   12.20800    0    0    0
     323      444        1     0.41500   16.75212    9.61180   12.98301    0    0    0
     324      444        1     0.41500   17.86949    8.98544   12.17614    0    0    0
     325      444        2    -0.83000    2.39802    1.91776   16.71533    0    0    0