LAMMPS data file via write_data, version 11 Aug 2017, timestep = 1000000

3552 atoms
11 atom types
2024 bonds
5 bond types
1018 angles
5 angle types
12 dihedrals
4 dihedral types
9 impropers
1 improper types

0.0000000000000000e+00 3.2704500000000003e+01 xlo xhi
0.0000000000000000e+00 3.2704500000000003e+01 ylo yhi
0.0000000000000000e+00 8.0000000000000000e+01 zlo zhi

Masses

1 1.0079
2 15.9994
3 39.0983
4 63.546
5 15.9994
6 1.0079
7 12.011
8 15.9994
9 15.9994
10 15.9994
11 1.0079

Bond Coeffs # harmonic

1 450 0.9572
2 570 1.229
3 450 1.364
4 570 1.229
5 553 0.945

Angle Coeffs # harmonic

1 100 123.32
2 85 124
3 55 104.52
4 35 113
5 100 123.32

Dihedral Coeffs # charmm

1 0.922 1 180 0
2 3.741 2 0 0
3 0.922 1 0 0
4 3.741 2 180 0

Improper Coeffs # umbrella

1 21 0

Atoms # full

3049 444 4 -7.4069999999999997e-02 1.6690600000000000e+00 6.6454999999999997e-01 3.5864099999999999e+00 0 0 0
3051 444 4 0.0000000000000000e+00 1.6560500000000000e+00 2.4790000000000001e+00 1.8169999999999999e+00 0 0 0
3060 444 4 0.0000000000000000e+00 1.6560500000000000e+00 6.6205000000000003e-01 0.0000000000000000e+00 0 0 0
2581 444 2 -8.2999999999999996e-01 1.3256905855544188e+00 3.5133046426783765e+00 7.0727757448760133e+00 3 0 0
358 444 2 -8.2999999999999996e-01 4.0652080724214118e-01 5.6369504769795686e-01 7.0287899208167444e+00 2 0 0
359 444 1 4.1499999999999998e-01 1.2677653555431552e+00 2.2955861528346058e-01 6.7781049675399130e+00 2 0 0
2582 444 1 4.1499999999999998e-01 1.1958652057846153e+00 2.5699851633446023e+00 7.1703759546123651e+00 3 0 0
2583 444 1 4.1499999999999998e-01 1.3038262380383701e+00 3.6620244467180534e+00 6.1274523715728826e+00 3 0 0
1385 444 1 4.1499999999999998e-01 2.5353971673099555e-02 2.1217236791551217e+00 1.1924112943245190e+01 3 4 0
711 444 1 4.1499999999999998e-01 3.5429475836168534e-01 2.8022084896001009e-01 8.7217811823164251e+00 5 4 0
2312 444 1 4.1499999999999998e-01 1.4254577975339935e+00 7.8985068980162476e-01 1.3886829834563537e+01 -1 -1 0
709 444 2 -8.2999999999999996e-01 1.4196031076744212e-01 2.4493337313542257e-01 9.6544658721885792e+00 5 4 0
1151 444 1 4.1499999999999998e-01 2.0417623366640187e+00 4.0341053683743713e+00 1.1215537736851786e+01 -1 -3 0
2311 444 2 -8.2999999999999996e-01 8.4929100241788869e-01 6.8172039863497591e-01 1.3130144578060534e+01 -1 -1 0
2756 444 1 4.1499999999999998e-01 1.3284174614776234e+00 4.2748189800980535e-01 1.9049279572908830e+01 -4 2 0
995 444 1 4.1499999999999998e-01 1.9458747054405039e+00 2.0526582598424867e-01 1.6200079646394286e+01 -2 3 0
3066 444 4 0.0000000000000000e+00 1.6560500000000000e+00 4.2959500000000004e+00 0.0000000000000000e+00 0 0 0
3067 444 4 -7.4069999999999997e-02 1.6722800000000000e+00 4.2845199999999997e+00 3.5729099999999998e+00 0 0 0
3069 444 4 0.0000000000000000e+00 1.6560500000000000e+00 6.1128000000000000e+00 1.8169999999999999e+00 0 0 0
3086 444 4 0.0000000000000000e+00 1.6560500000000000e+00 7.9297500000000003e+00 0.0000000000000000e+00 0 0 0
3087 444 4 -7.4069999999999997e-02 1.6728700000000001e+00 7.9406999999999996e+00 3.5710299999999999e+00 0 0 0
1396 444 2 -8.2999999999999996e-01 6.6597945827024896e-01 6.5610006631218116e+00 7.0894529135260456e+00 1 -1 0
1397 444 1 4.1499999999999998e-01 9.7579534377243227e-01 5.6836988299396749e+00 6.8645361530042965e+00 1 -1 0
1398 444 1 4.1499999999999998e-01 8.3651126738056836e-01 7.0839097433738507e+00 6.3060520484792058e+00 1 -1 0
2723 444 1 4.1499999999999998e-01 1.8800859875500473e+00 6.8313184577114026e+00 1.4970261611930050e+01 -7 -1 0
1150 444 2 -8.2999999999999996e-01 1.4784641676028798e+00 4.7350234396024593e+00 1.0887451327980015e+01 -1 -3 0
583 444 2 -8.2999999999999996e-01 2.5515882826191366e-01 7.2705277183311852e+00 1.5631100611789309e+01 1 2 0
1152 444 1 4.1499999999999998e-01 5.9602811745314599e-01 4.3649591097670060e+00 1.0911756098583263e+01 -1 -3 0
3008 444 1 4.1499999999999998e-01 2.0272073335320773e+00 6.4354278759810253e+00 9.4132297113134431e+00 -3 -5 0
1343 444 1 4.1499999999999998e-01 3.8152475787373913e-01 4.6885769749388331e+00 1.6771963676253183e+01 -2 -1 0
473 444 1 4.1499999999999998e-01 5.8128032935660134e-01 7.7460461823909093e+00 1.8589552100058889e+01 3 -2 0
2608 444 2 -8.2999999999999996e-01 1.4338465308686599e+00 4.4654552186217584e+00 1.8340561631073140e+01 2 4 0
2609 444 1 4.1499999999999998e-01 1.4409276177284165e+00 5.4218706931556868e+00 1.8302468923802866e+01 2 4 0
474 444 1 4.1499999999999998e-01 7.9227886987889984e-01 7.1154395399761308e+00 1.7229511663750753e+01 3 -2 0
472 444 2 -8.2999999999999996e-01 9.9130307763550629e-01 6.9963541346595228e+00 1.8158188088609549e+01 3 -2 0
2610 444 1 4.1499999999999998e-01 5.4299803067967356e-01 4.2426255417043093e+00 1.8610686954451875e+01 2 4 0
3089 444 4 0.0000000000000000e+00 1.6560500000000000e+00 9.7467000000000006e+00 1.8169999999999999e+00 0 0 0
3105 444 4 -7.4069999999999997e-02 1.6690600000000000e+00 1.1566050000000001e+01 3.5864099999999999e+00 0 0 0
3116 444 4 0.0000000000000000e+00 1.6560500000000000e+00 1.1563549999999999e+01 0.0000000000000000e+00 0 0 0
946 444 2 -8.2999999999999996e-01 1.4375286991927672e+00 9.8127953971739892e+00 1.0858692681175347e+01 2 -3 0
2 444 1 4.1499999999999998e-01 1.9012346881694389e+00 1.1760895936566790e+01 1.5823407918969128e+01 0 1 0
584 444 1 4.1499999999999998e-01 1.3300992971686523e-01 8.2186902777430948e+00 1.5679051845456208e+01 1 2 0
948 444 1 4.1499999999999998e-01 1.6148220888515914e+00 8.9000476267033299e+00 1.1086047701201585e+01 2 -3 0
1605 444 1 4.1499999999999998e-01 1.7726758747900466e+00 1.1893712727146850e+01 8.6686266705165664e+00 4 1 0
548 444 1 4.1499999999999998e-01 6.4251225364162767e-01 1.1492517661406866e+01 1.1139899577681206e+01 1 0 0
547 444 2 -8.2999999999999996e-01 2.2448045182184899e-02 1.2220286286284736e+01 1.1094011149545207e+01 1 0 0
425 444 1 4.1499999999999998e-01 1.3202900756504332e+00 9.5154339041165077e+00 1.9782674597812207e+01 2 0 0
1931 444 1 4.1499999999999998e-01 3.1220998309073666e-01 1.0534909764802702e+01 1.6145190511349181e+01 -2 0 0
3107 444 4 0.0000000000000000e+00 1.6560500000000000e+00 1.3380500000000000e+01 1.8169999999999999e+00 0 0 0
3122 444 4 0.0000000000000000e+00 1.6560500000000000e+00 1.5197450000000000e+01 0.0000000000000000e+00 0 0 0
3123 444 4 -7.4069999999999997e-02 1.6722800000000000e+00 1.5186019999999999e+01 3.5729099999999998e+00 0 0 0
2126 444 1 4.1499999999999998e-01 1.0546271462808086e+00 1.3839318071265710e+01 7.3272172375148381e+00 3 0 0
2125 444 2 -8.2999999999999996e-01 2.0851395686169161e-01 1.3419882224385617e+01 7.1710196517432321e+00 3 0 0
2127 444 1 4.1499999999999998e-01 2.0550071384153701e-01 1.3227465335645029e+01 6.2333639051145751e+00 3 0 0
861 444 1 4.1499999999999998e-01 7.8340007323136229e-01 1.6232536385620993e+01 9.4852072603095241e+00 -2 1 0
859 444 2 -8.2999999999999996e-01 1.6553029790135350e+00 1.5900394158126703e+01 9.6989797260950183e+00 -2 1 0
2443 444 2 -8.2999999999999996e-01 3.9987723399258124e-01 1.2465676977445675e+01 1.5614458405985339e+01 -1 3 0
2606 444 1 4.1499999999999998e-01 5.8140187319637926e-01 1.5452642503832463e+01 1.2535890232602766e+01 -1 -2 0
860 444 1 4.1499999999999998e-01 1.8812001510613499e+00 1.5329253360933969e+01 8.9648133350260633e+00 -2 1 0
2605 444 2 -8.2999999999999996e-01 7.8365483400711622e-01 1.4582733692299961e+01 1.2880251383545620e+01 -1 -2 0
2607 444 1 4.1499999999999998e-01 6.9786745967703001e-01 1.4000029060346028e+01 1.2125713128363897e+01 -1 -2 0
2445 444 1 4.1499999999999998e-01 1.3474721926428401e-02 1.2524999699876137e+01 1.4740727199900226e+01 -1 3 0
2444 444 1 4.1499999999999998e-01 1.8105695328482288e-01 1.3299375239403542e+01 1.6030748099517972e+01 -1 3 0
485 444 1 4.1499999999999998e-01 5.2839526756451580e-02 1.5488494334980109e+01 1.7927014913935121e+01 1 -1 0
209 444 1 4.1499999999999998e-01 1.9783783599967901e+00 1.2411149404801087e+01 1.8826880681049222e+01 2 -1 0
3125 444 4 0.0000000000000000e+00 1.6560500000000000e+00 1.7014299999999999e+01 1.8169999999999999e+00 0 0 0
3142 444 4 0.0000000000000000e+00 1.6560500000000000e+00 1.8831250000000001e+01 0.0000000000000000e+00 0 0 0
3143 444 4 -7.4069999999999997e-02 1.6728700000000001e+00 1.8842199999999998e+01 3.5710299999999999e+00 0 0 0
1946 444 1 4.1499999999999998e-01 1.4694962803447944e+00 1.7209979491336007e+01 6.4921239706848528e+00 4 -1 0
1945 444 2 -8.2999999999999996e-01 1.1078206113870559e+00 1.7920327491642993e+01 7.0220563848866515e+00 4 -1 0
1947 444 1 4.1499999999999998e-01 1.7709196542409151e+00 1.8609599499821332e+01 6.9841631791407703e+00 4 -1 0
1806 444 1 4.1499999999999998e-01 5.8203639246575445e-01 1.9413327208504093e+01 8.2475159835257905e+00 -5 0 0
1317 444 1 4.1499999999999998e-01 9.6199259194014475e-01 1.7390458828123059e+01 1.1051363054065206e+01 9 2 0
1804 444 2 -8.2999999999999996e-01 2.8053309000609622e-01 1.9766411871809776e+01 9.0845698173003573e+00 -5 0 0
1315 444 2 -8.2999999999999996e-01 5.3883139826606374e-01 1.7196709819171780e+01 1.1887800930736363e+01 9 2 0
1316 444 1 4.1499999999999998e-01 1.2231033168587642e+00 1.7339574677809026e+01 1.2541707670641260e+01 9 2 0
2344 444 2 -8.2999999999999996e-01 1.9882378133804957e+00 2.0073772237591957e+01 1.5320927621048730e+01 1 -5 0
2345 444 1 4.1499999999999998e-01 1.1578620085977702e+00 2.0273103887567270e+01 1.4888521472407847e+01 1 -5 0
1309 444 2 -8.2999999999999996e-01 7.3399307745056241e-01 1.6892903207643936e+01 1.8606567676395361e+01 2 6 0
1311 444 1 4.1499999999999998e-01 1.5808309199845558e+00 1.6446864046475611e+01 1.8594459998802925e+01 2 6 0
1310 444 1 4.1499999999999998e-01 6.0412706758688350e-01 1.7136476328293419e+01 1.9523103938968742e+01 2 6 0
1532 444 1 4.1499999999999998e-01 1.5743951625210224e+00 1.8633861261419995e+01 1.8741811706968136e+01 -2 -1 0
1533 444 1 4.1499999999999998e-01 1.8766956057812141e+00 1.9278988209226586e+01 1.7406026981351864e+01 -2 -1 0
2993 444 1 4.1499999999999998e-01 1.2339689059584096e+00 1.6452118755039759e+01 1.6099653551703383e+01 -6 -1 0
3145 444 4 0.0000000000000000e+00 1.6560500000000000e+00 2.0648199999999999e+01 1.8169999999999999e+00 0 0 0
3161 444 4 -7.4069999999999997e-02 1.6690600000000000e+00 2.2467549999999999e+01 3.5864099999999999e+00 0 0 0
3163 444 4 0.0000000000000000e+00 1.6560500000000000e+00 2.4282000000000000e+01 1.8169999999999999e+00 0 0 0
3172 444 4 0.0000000000000000e+00 1.6560500000000000e+00 2.2465050000000002e+01 0.0000000000000000e+00 0 0 0
2983 444 2 -8.2999999999999996e-01 1.5630566976496723e+00 2.0894977996585300e+01 6.9079788455888647e+00 -6 -4 0
2984 444 1 4.1499999999999998e-01 1.2312798942620271e+00 2.0853339013551935e+01 6.0110828770288851e+00 -6 -4 0
1208 444 1 4.1499999999999998e-01 1.9147139758385896e+00 2.3878899158672045e+01 9.4001203623922542e+00 -2 1 0
972 444 1 4.1499999999999998e-01 1.0834817089581146e-01 2.1575992955081702e+01 1.2877182882871825e+01 2 -2 0
1555 444 2 -8.2999999999999996e-01 9.7758134169675426e-01 2.2819114985078791e+01 1.2048622720905914e+01 -3 -2 0
1557 444 1 4.1499999999999998e-01 8.3036944387460099e-01 2.2751161434310646e+01 1.1105254785069835e+01 -3 -2 0
1556 444 1 4.1499999999999998e-01 5.3008808233226035e-01 2.3625863658723141e+01 1.2303846723411185e+01 -3 -2 0
1467 444 1 4.1499999999999998e-01 3.7746837574491071e-01 2.1513865097809745e+01 8.7382440054692125e+00 3 1 0
1465 444 2 -8.2999999999999996e-01 9.0385622706528487e-02 2.2381514758896554e+01 9.0228474399155836e+00 3 1 0
1437 444 1 4.1499999999999998e-01 5.4218139802396048e-01 2.1573857641991825e+01 1.9834515684012374e+01 0 7 0
2120 444 1 4.1499999999999998e-01 3.2696772289404147e-01 2.2920824927525803e+01 1.6375900331324228e+01 3 0 0
3178 444 4 0.0000000000000000e+00 1.6560500000000000e+00 2.6098949999999999e+01 0.0000000000000000e+00 0 0 0
3179 444 4 -7.4069999999999997e-02 1.6722800000000000e+00 2.6087520000000001e+01 3.5729099999999998e+00 0 0 0
3181 444 4 0.0000000000000000e+00 1.6560500000000000e+00 2.7915800000000001e+01 1.8169999999999999e+00 0 0 0
2726 444 1 4.1499999999999998e-01 1.2853231115319113e+00 2.6730782661183781e+01 7.7692101420400324e+00 3 5 0
1480 444 2 -8.2999999999999996e-01 5.2730996384128315e-01 2.5474745122105141e+01 6.8926274482526413e+00 -5 -2 0
1481 444 1 4.1499999999999998e-01 3.6053384229635232e-01 2.5689071261736665e+01 5.9747593486496298e+00 -5 -2 0
2720 444 1 4.1499999999999998e-01 1.3085265068934180e+00 2.6355091537347857e+01 1.0102322201169319e+01 -2 -3 0
2719 444 2 -8.2999999999999996e-01 1.4456134392971522e+00 2.5832206110605174e+01 1.0892278280180745e+01 -2 -3 0
2640 444 1 4.1499999999999998e-01 1.9311672870703174e+00 2.6671641116207002e+01 1.2219588869029176e+01 -3 -1 0
2727 444 1 4.1499999999999998e-01 1.1814372682978664e+00 2.8039755241467635e+01 8.5226644712864665e+00 3 5 0
2721 444 1 4.1499999999999998e-01 5.6972565632921324e-01 2.5534362303089818e+01 1.1137924499950065e+01 -2 -3 0
2725 444 2 -8.2999999999999996e-01 1.6793330161827817e+00 2.7222913590811959e+01 8.4894844878142894e+00 3 5 0
2058 444 1 4.1499999999999998e-01 1.0630267632700718e+00 2.6772929615983855e+01 1.4096605065084843e+01 2 1 0
2056 444 2 -8.2999999999999996e-01 3.8881581750186228e-01 2.6468432727240867e+01 1.4704020140704822e+01 2 1 0
543 444 1 4.1499999999999998e-01 8.6929216006756682e-01 2.5178852653437065e+01 1.6317748281527727e+01 1 1 0
851 444 1 4.1499999999999998e-01 1.0372832998631905e+00 2.8504767607034772e+01 1.8248988930640962e+01 5 1 0
542 444 1 4.1499999999999998e-01 1.7367095874544858e+00 2.5412679946684211e+01 1.7536275030060455e+01 1 1 0
541 444 2 -8.2999999999999996e-01 1.0278833869742563e+00 2.4860433367796837e+01 1.7206393320264048e+01 1 1 0
3198 444 4 0.0000000000000000e+00 1.6560500000000000e+00 2.9732749999999999e+01 0.0000000000000000e+00 0 0 0
3199 444 4 -7.4069999999999997e-02 1.6728700000000001e+00 2.9743700000000000e+01 3.5710299999999999e+00 0 0 0
3201 444 4 0.0000000000000000e+00 1.6560500000000000e+00 3.1549700000000001e+01 1.8169999999999999e+00 0 0 0
1835 444 1 4.1499999999999998e-01 6.2075385377674830e-01 3.0252119067635686e+01 7.9860659092179791e+00 0 3 0
2477 444 1 4.1499999999999998e-01 1.3685017542315585e+00 2.9394625340495818e+01 1.0835859609010921e+01 -1 -1 0
1834 444 2 -8.2999999999999996e-01 1.5192932097113496e-01 2.9591127572194889e+01 8.4955029795598058e+00 0 3 0
975 444 1 4.1499999999999998e-01 5.9410528566556831e-01 2.9468732544305844e+01 1.2881796690743656e+01 4 1 0
974 444 1 4.1499999999999998e-01 1.5098046491158070e+00 2.9611025826932405e+01 1.4078935979068707e+01 4 1 0
973 444 2 -8.2999999999999996e-01 5.9554114101404443e-01 2.9460147728618047e+01 1.3838957150548760e+01 4 1 0
2476 444 2 -8.2999999999999996e-01 5.3350767319613679e-01 2.9406536430691890e+01 1.1303701263484092e+01 -1 -1 0
710 444 1 4.1499999999999998e-01 9.5142191721573610e-01 3.2657913606641301e+01 1.0074013171644106e+01 5 3 0
2313 444 1 4.1499999999999998e-01 5.8268760762161553e-01 3.2467410949723721e+01 1.3160862532806812e+01 -1 -2 0
2755 444 2 -8.2999999999999996e-01 1.9097944128493156e+00 3.2616264043166183e+01 1.9608088815191024e+01 -4 1 0
2757 444 1 4.1499999999999998e-01 1.3981448400003536e+00 3.1839703279347514e+01 1.9834804402540261e+01 -4 1 0
850 444 1 4.1499999999999998e-01 1.1340935317182050e+00 2.9221148373936508e+01 1.9579147367783388e+01 5 1 0
847 444 2 -8.2999999999999996e-01 1.6384155298117662e+00 2.8677965924040631e+01 1.8973470885539644e+01 5 1 0
3050 444 4 0.0000000000000000e+00 3.4729999999999999e+00 6.6205000000000003e-01 1.8169999999999999e+00 0 0 0
3074 444 4 -7.4069999999999997e-02 3.4731299999999998e+00 2.4692300000000000e+00 3.5865800000000001e+00 0 0 0
3075 444 4 0.0000000000000000e+00 3.4729999999999999e+00 2.4790000000000001e+00 0.0000000000000000e+00 0 0 0
1855 444 2 -8.2999999999999996e-01 3.2750726790720166e+00 1.1560336867875491e-01 7.0342600893587575e+00 0 -2 0
1856 444 1 4.1499999999999998e-01 3.8089954225873872e+00 3.0073754178459249e-02 6.2444227484178505e+00 0 -2 0
627 444 1 4.1499999999999998e-01 2.5096160088807409e+00 3.0629386861413561e+00 1.3863758183333630e+01 0 -2 0
886 444 2 -8.2999999999999996e-01 2.8096591712630632e+00 2.3701873459760567e+00 1.1545181955648026e+01 -3 0 0
887 444 1 4.1499999999999998e-01 3.7548160260325769e+00 2.2235822791022946e+00 1.1507530730182173e+01 -3 0 0
888 444 1 4.1499999999999998e-01 2.4297489342722982e+00 1.4917414116445640e+00 1.1529916919720399e+01 -3 0 0
996 444 1 4.1499999999999998e-01 2.2735717318694717e+00 1.6624194819198590e+00 1.5952666474032858e+01 -2 3 0
994 444 2 -8.2999999999999996e-01 2.1013104712938073e+00 8.3761736346598958e-01 1.5498507715465728e+01 -2 3 0
625 444 2 -8.2999999999999996e-01 2.4924614056749350e+00 4.0189599491667609e+00 1.3819473726069189e+01 0 -2 0
606 444 1 4.1499999999999998e-01 3.5943237128503225e+00 4.0489909848370642e-01 1.8498161452791912e+01 1 -1 0
349 444 2 -8.2999999999999996e-01 3.3173318730982215e+00 3.0493536639528149e+00 1.6982208703022305e+01 3 1 0
605 444 1 4.1499999999999998e-01 3.7513861376459960e+00 1.5405664015586487e+00 1.7509481817471631e+01 1 -1 0
351 444 1 4.1499999999999998e-01 2.6262904494569068e+00 3.5448846367987703e+00 1.7421690003347400e+01 3 1 0
3064 444 4 0.0000000000000000e+00 3.4729999999999999e+00 6.1128000000000000e+00 0.0000000000000000e+00 0 0 0
3065 444 4 -7.4069999999999997e-02 3.4736199999999999e+00 6.1125800000000003e+00 3.5853999999999999e+00 0 0 0
3068 444 4 0.0000000000000000e+00 3.4729999999999999e+00 4.2959500000000004e+00 1.8169999999999999e+00 0 0 0
3088 444 4 0.0000000000000000e+00 3.4729999999999999e+00 7.9297500000000003e+00 1.8169999999999999e+00 0 0 0
394 444 2 -8.2999999999999996e-01 3.8557012625627189e+00 7.4811283567958116e+00 6.8272657288722876e+00 4 0 0
2133 444 1 4.1499999999999998e-01 3.0868116944711486e+00 4.5487056176915646e+00 7.5957036133060010e+00 2 0 0
396 444 1 4.1499999999999998e-01 3.8974894162162799e+00 6.5366719903989567e+00 6.6773067446584520e+00 4 0 0
2131 444 2 -8.2999999999999996e-01 3.9169299021476807e+00 4.6957049809799267e+00 7.1423525800326111e+00 2 0 0
2132 444 1 4.1499999999999998e-01 3.6646450734452567e+00 4.9232049675827385e+00 6.2474626782126066e+00 2 0 0
3009 444 1 4.1499999999999998e-01 2.5859578555936356e+00 7.4744117161765429e+00 8.4644380274751665e+00 -3 -5 0
2724 444 1 4.1499999999999998e-01 2.6300484456719371e+00 5.6069138893746358e+00 1.4490381677683025e+01 -7 -1 0
613 444 2 -8.2999999999999996e-01 2.3758456985433130e+00 7.4635814255386617e+00 1.2384157922953596e+01 3 -6 0
626 444 1 4.1499999999999998e-01 3.2207998696418407e+00 4.2455242139927538e+00 1.3241179661144262e+01 0 -2 0
615 444 1 4.1499999999999998e-01 2.5454618947045349e+00 7.3661887869857736e+00 1.3321162079927513e+01 3 -6 0
2722 444 2 -8.2999999999999996e-01 2.7478980986132338e+00 6.4274219682352554e+00 1.4969035825767733e+01 -7 -1 0
3007 444 2 -8.2999999999999996e-01 2.7996596164778755e+00 6.9779525329067935e+00 9.2544328906761972e+00 -3 -5 0
614 444 1 4.1499999999999998e-01 2.2637782520767873e+00 6.5677265152030211e+00 1.2066169097100433e+01 3 -6 0
303 444 1 4.1499999999999998e-01 3.2087406884691747e+00 4.4190116803031634e+00 1.9740153728626915e+01 1 -1 0
2562 444 1 4.1499999999999998e-01 2.9113040632264622e+00 6.8203829127138293e+00 1.8121398889277152e+01 -3 -6 0
2560 444 2 -8.2999999999999996e-01 3.8567816741489049e+00 6.7905598909292237e+00 1.8267738462237311e+01 -3 -6 0
3084 444 4 0.0000000000000000e+00 3.4729999999999999e+00 9.7467000000000006e+00 0.0000000000000000e+00 0 0 0
3085 444 4 -7.4069999999999997e-02 3.4734200000000000e+00 9.7571200000000005e+00 3.5859500000000000e+00 0 0 0
3106 444 4 0.0000000000000000e+00 3.4729999999999999e+00 1.1563549999999999e+01 1.8169999999999999e+00 0 0 0
1500 444 1 4.1499999999999998e-01 4.0185638981846159e+00 1.2030733157763621e+01 6.2387987457672747e+00 0 0 0
1297 444 2 -8.2999999999999996e-01 2.6308028635665281e+00 9.7740878085519665e+00 7.0629469131292870e+00 -2 0 0
1299 444 1 4.1499999999999998e-01 3.1368789428296862e+00 8.9625944626749039e+00 7.0229648256369011e+00 -2 0 0
1298 444 1 4.1499999999999998e-01 2.1221589038616004e+00 9.7799068865381216e+00 6.2520957874301484e+00 -2 0 0
3 444 1 4.1499999999999998e-01 2.8573263257652495e+00 1.0901979412340282e+01 1.5023378962309463e+01 0 1 0
947 444 1 4.1499999999999998e-01 2.2286323439839522e+00 1.0105423251752949e+01 1.0406193592435267e+01 2 -3 0
1603 444 2 -8.2999999999999996e-01 2.5901440745237601e+00 1.2100287124684929e+01 9.1217320450079846e+00 4 1 0
2469 444 1 4.1499999999999998e-01 2.7918293405359242e+00 9.8018519782069742e+00 1.3731149507499417e+01 2 -4 0
1 444 2 -8.2999999999999996e-01 2.6229813566257079e+00 1.1139696275553836e+01 1.5920488190488129e+01 0 1 0
219 444 1 4.1499999999999998e-01 3.7029761420652423e+00 1.0730872160742489e+01 9.3920119673768667e+00 4 5 0
2467 444 2 -8.2999999999999996e-01 3.3449528841882623e+00 1.0515684851184986e+01 1.3413771666619745e+01 2 -4 0
1737 444 1 4.1499999999999998e-01 3.3837483278413778e+00 1.2196356412869664e+01 1.2244826548806685e+01 -2 4 0
1604 444 1 4.1499999999999998e-01 3.2224446707183554e+00 1.2251230620921818e+01 8.4191345675246652e+00 4 1 0
361 444 2 -8.2999999999999996e-01 3.8359977037596287e+00 9.5821431329102129e+00 1.7788985646107513e+01 7 1 0
362 444 1 4.1499999999999998e-01 3.4062449680246458e+00 1.0221189547019589e+01 1.7220510395269006e+01 7 1 0
426 444 1 4.1499999999999998e-01 2.7118515786452080e+00 9.5983019488396764e+00 1.9192263603538350e+01 2 0 0
3124 444 4 0.0000000000000000e+00 3.4729999999999999e+00 1.5197450000000000e+01 1.8169999999999999e+00 0 0 0
3130 444 4 -7.4069999999999997e-02 3.4731299999999998e+00 1.3370730000000000e+01 3.5865800000000001e+00 0 0 0
3131 444 4 0.0000000000000000e+00 3.4729999999999999e+00 1.3380500000000000e+01 0.0000000000000000e+00 0 0 0
2738 444 1 4.1499999999999998e-01 3.0036100336157454e+00 1.5547928737757294e+01 7.4247092839832245e+00 0 -4 0
2737 444 2 -8.2999999999999996e-01 2.5954952001747182e+00 1.4682099024654123e+01 7.4283193732892094e+00 0 -4 0
2739 444 1 4.1499999999999998e-01 3.3312243395186614e+00 1.4069937304689088e+01 7.4144444138985008e+00 0 -4 0
2172 444 1 4.1499999999999998e-01 3.5127810057396709e+00 1.5502585636850492e+01 1.2153887657307067e+01 3 -5 0
1736 444 1 4.1499999999999998e-01 3.2606710750590251e+00 1.2759049704936556e+01 1.0844782440458905e+01 -2 4 0
1735 444 2 -8.2999999999999996e-01 3.6344048914116285e+00 1.2946604077866253e+01 1.1705816163373173e+01 -2 4 0
2171 444 1 4.1499999999999998e-01 3.2243118498208525e+00 1.6069614882226219e+01 1.0780148810253102e+01 3 -5 0
2170 444 2 -8.2999999999999996e-01 3.7707454294852361e+00 1.6203011738133185e+01 1.1554646961970981e+01 3 -5 0
208 444 2 -8.2999999999999996e-01 2.7570869570537524e+00 1.2966420247352316e+01 1.8865857471881782e+01 2 -1 0
270 444 1 4.1499999999999998e-01 3.1546499439411502e+00 1.5040435342990873e+01 1.8305762624139287e+01 -8 1 0
210 444 1 4.1499999999999998e-01 2.6447233909688546e+00 1.3481623325658031e+01 1.9664714210861778e+01 2 -1 0
1637 444 1 4.1499999999999998e-01 3.4981098881357737e+00 1.3629479445803989e+01 1.7185527442285267e+01 1 3 0
268 444 2 -8.2999999999999996e-01 3.0751038218213500e+00 1.5771431250970169e+01 1.8918583346594925e+01 -8 1 0
269 444 1 4.1499999999999998e-01 3.5221667810846671e+00 1.5470984888554188e+01 1.9709847206067206e+01 -8 1 0
2994 444 1 4.1499999999999998e-01 2.4120338066611855e+00 1.5501574582730951e+01 1.6122552310124700e+01 -6 -1 0
1636 444 2 -8.2999999999999996e-01 3.7635249644914182e+00 1.4362498841757930e+01 1.6630126676843897e+01 1 3 0
3120 444 4 0.0000000000000000e+00 3.4729999999999999e+00 1.7014299999999999e+01 0.0000000000000000e+00 0 0 0
3121 444 4 -7.4069999999999997e-02 3.4736199999999999e+00 1.7014080000000000e+01 3.5853999999999999e+00 0 0 0
3144 444 4 0.0000000000000000e+00 3.4729999999999999e+00 1.8831250000000001e+01 1.8169999999999999e+00 0 0 0
1873 444 2 -8.2999999999999996e-01 3.8768889538109734e+00 1.9256623635816329e+01 7.0472889110479100e+00 0 1 0
1874 444 1 4.1499999999999998e-01 3.6555345327824216e+00 1.9622370643746521e+01 6.1908642858924257e+00 0 1 0
2501 444 1 4.1499999999999998e-01 3.9267839103584481e+00 1.7662288810784787e+01 7.0641363030571718e+00 0 -2 0
991 444 2 -8.2999999999999996e-01 2.8859568175611510e+00 1.7914970674524724e+01 1.3833664631466124e+01 1 0 0
2063 444 1 4.1499999999999998e-01 3.3860207226861525e+00 2.0105519217328300e+01 8.7781316270401284e+00 3 -1 0
992 444 1 4.1499999999999998e-01 2.6238922471899979e+00 1.7456319592231512e+01 1.4631908465576510e+01 1 0 0
993 444 1 4.1499999999999998e-01 3.2698409951387992e+00 1.7234341841443509e+01 1.3280845521964592e+01 1 0 0
2064 444 1 4.1499999999999998e-01 2.1176737021994740e+00 2.0169072395545964e+01 9.6022384388358439e+00 3 -1 0
2346 444 1 4.1499999999999998e-01 2.2869488287228177e+00 1.9264755483461496e+01 1.4905601014992817e+01 1 -5 0
2062 444 2 -8.2999999999999996e-01 3.0714070156484841e+00 2.0201050159943001e+01 9.6770890271202301e+00 3 -1 0
2992 444 2 -8.2999999999999996e-01 2.1585382586478552e+00 1.6386664074026982e+01 1.5860657313873773e+01 -6 -1 0
1531 444 2 -8.2999999999999996e-01 2.0754817901148370e+00 1.9343643617220572e+01 1.8340123351314251e+01 -2 -1 0
908 444 1 4.1499999999999998e-01 3.9955643536041032e+00 1.9361553384999244e+01 1.8505867759695064e+01 2 2 0
3140 444 4 0.0000000000000000e+00 3.4729999999999999e+00 2.0648199999999999e+01 0.0000000000000000e+00 0 0 0
3141 444 4 -7.4069999999999997e-02 3.4734200000000000e+00 2.0658619999999999e+01 3.5859500000000000e+00 0 0 0
3162 444 4 0.0000000000000000e+00 3.4729999999999999e+00 2.2465050000000002e+01 1.8169999999999999e+00 0 0 0
3186 444 4 -7.4069999999999997e-02 3.4731299999999998e+00 2.4272230000000000e+01 3.5865800000000001e+00 0 0 0
3187 444 4 0.0000000000000000e+00 3.4729999999999999e+00 2.4282000000000000e+01 0.0000000000000000e+00 0 0 0
1070 444 1 4.1499999999999998e-01 2.8700853431676099e+00 2.3896118826636073e+01 6.3976442246914376e+00 2 5 0
2985 444 1 4.1499999999999998e-01 2.1453399855231643e+00 2.1654681459142569e+01 6.9134353164697409e+00 -6 -4 0
1069 444 2 -8.2999999999999996e-01 3.1495991986744438e+00 2.3043363033722276e+01 6.7306774285027098e+00 2 5 0
1071 444 1 4.1499999999999998e-01 4.0743710540975577e+00 2.2983498839740502e+01 6.4910010566289493e+00 2 5 0
1207 444 2 -8.2999999999999996e-01 2.8240102795529261e+00 2.3591074080079345e+01 9.3190707902015593e+00 -2 1 0
1209 444 1 4.1499999999999998e-01 2.8669652912975172e+00 2.3170497449840706e+01 8.4602908546339215e+00 -2 1 0
1715 444 1 4.1499999999999998e-01 3.3560178271479071e+00 2.2798989090144623e+01 1.5433907784629266e+01 1 -1 0
2558 444 1 4.1499999999999998e-01 2.7350284232545974e+00 2.2240225916139732e+01 1.3053973389247634e+01 2 1 0
2557 444 2 -8.2999999999999996e-01 3.5997652066767944e+00 2.2575119003274573e+01 1.3291268767770225e+01 2 1 0
294 444 1 4.1499999999999998e-01 3.8893652946272983e+00 2.4303237096657533e+01 1.3799479593302745e+01 7 5 0
1716 444 1 4.1499999999999998e-01 3.0631114211646993e+00 2.1439315177431663e+01 1.6031726583106561e+01 1 -1 0
657 444 1 4.1499999999999998e-01 2.7427664193339050e+00 2.2151981965175093e+01 1.8221593459590135e+01 0 0 0
656 444 1 4.1499999999999998e-01 2.5678591406441083e+00 2.0818905333578154e+01 1.8917445286180964e+01 0 0 0
1714 444 2 -8.2999999999999996e-01 3.4668263218132198e+00 2.2283586558065174e+01 1.6232852979761923e+01 1 -1 0
655 444 2 -8.2999999999999996e-01 2.5754347512173488e+00 2.1762225975451173e+01 1.9079685996837654e+01 0 0 0
3176 444 4 0.0000000000000000e+00 3.4729999999999999e+00 2.7915800000000001e+01 0.0000000000000000e+00 0 0 0
3177 444 4 -7.4069999999999997e-02 3.4736199999999999e+00 2.7915579999999999e+01 3.5853999999999999e+00 0 0 0
3180 444 4 0.0000000000000000e+00 3.4729999999999999e+00 2.6098949999999999e+01 1.8169999999999999e+00 0 0 0
1769 444 1 4.1499999999999998e-01 3.0318416622302382e+00 2.6002389648555628e+01 7.4508090656910007e+00 2 4 0
1768 444 2 -8.2999999999999996e-01 3.5064751410251556e+00 2.5783841582688716e+01 6.6488165248786331e+00 2 4 0
1770 444 1 4.1499999999999998e-01 2.9615948341943090e+00 2.6134606705217955e+01 5.9443300085641448e+00 2 4 0
293 444 1 4.1499999999999998e-01 3.2551689834642605e+00 2.5634506293424753e+01 1.3456823904140917e+01 7 5 0
292 444 2 -8.2999999999999996e-01 3.9324017432146694e+00 2.5237264919436058e+01 1.4004352374043391e+01 7 5 0
258 444 1 4.1499999999999998e-01 3.0884127044896386e+00 2.6867983687722219e+01 1.5648295090183748e+01 1 4 0
852 444 1 4.1499999999999998e-01 3.3781082983356847e+00 2.5887568588505729e+01 1.0237209796374767e+01 0 -1 0
2638 444 2 -8.2999999999999996e-01 2.2249711628221549e+00 2.7122248717113941e+01 1.3011336220061199e+01 -3 -1 0
2639 444 1 4.1499999999999998e-01 2.5216631593637873e+00 2.7978800240594303e+01 1.2703886976754236e+01 -3 -1 0
3014 444 1 4.1499999999999998e-01 3.6328289371069906e+00 2.8387528195782370e+01 1.0906116829061693e+01 0 -1 0
256 444 2 -8.2999999999999996e-01 3.3834521598194183e+00 2.7623638538372003e+01 1.6156399228523089e+01 1 4 0
257 444 1 4.1499999999999998e-01 3.3606125113370644e+00 2.7325201595931912e+01 1.7065600338677701e+01 1 4 0
743 444 1 4.1499999999999998e-01 3.1286991725663471e+00 2.6036891318709667e+01 1.9268694511864531e+01 3 -1 0
744 444 1 4.1499999999999998e-01 2.3903767045611919e+00 2.7183697105513374e+01 1.8611723091091083e+01 3 -1 0
742 444 2 -8.2999999999999996e-01 2.8356447790966524e+00 2.6359195905241663e+01 1.8416362061457146e+01 3 -1 0
3196 444 4 0.0000000000000000e+00 3.4729999999999999e+00 3.1549700000000001e+01 0.0000000000000000e+00 0 0 0
3197 444 4 -7.4069999999999997e-02 3.4734200000000000e+00 3.1560120000000001e+01 3.5859500000000000e+00 0 0 0
3200 444 4 0.0000000000000000e+00 3.4729999999999999e+00 2.9732749999999999e+01 1.8169999999999999e+00 0 0 0
1857 444 1 4.1499999999999998e-01 3.0623379490747995e+00 3.1919456230542146e+01 7.2788216848446972e+00 0 -3 0
1198 444 2 -8.2999999999999996e-01 3.1390778015965521e+00 3.0044051745660298e+01 7.0143340789780355e+00 4 1 0