LAMMPS data file via write_data, version 11 Aug 2017, timestep = 1000000

3579 atoms
13 atom types
2024 bonds
5 bond types
1018 angles
5 angle types
12 dihedrals
4 dihedral types
9 impropers
1 improper types

0.0000000000000000e+00 3.2704500000000003e+01 xlo xhi
0.0000000000000000e+00 3.2704500000000003e+01 ylo yhi
0.0000000000000000e+00 6.5000000000000000e+01 zlo zhi

Masses

1 1.0079
2 15.9994
3 39.0983
4 63.546
5 12.011
6 15.9994
7 1.0079
8 1.0079
9 12.011
10 15.9994
11 15.9994
12 15.9994
13 1.0079

Bond Coeffs # harmonic

1 450 0.9572
2 570 1.229
3 450 1.364
4 570 1.229
5 553 0.945

Angle Coeffs # harmonic

1 100 123.32
2 85 124
3 55 104.52
4 35 113
5 100 123.32

Dihedral Coeffs # charmm

1 0.922 1 180 0
2 3.741 2 0 0
3 0.922 1 0 0
4 3.741 2 180 0

Improper Coeffs # umbrella

1 21 0

Atoms # full

3049 444 4 -7.4069999999999997e-02 1.6631800000000001e+00 6.6618999999999995e-01 3.5925099999999999e+00 0 0 0
3050 444 4 0.0000000000000000e+00 3.4729999999999999e+00 6.6205000000000003e-01 1.8169999999999999e+00 0 0 0
3051 444 4 0.0000000000000000e+00 1.6560500000000000e+00 2.4790000000000001e+00 1.8169999999999999e+00 0 0 0
3054 444 4 0.0000000000000000e+00 5.2898399999999999e+00 6.6205000000000003e-01 0.0000000000000000e+00 0 0 0
3055 444 4 -7.4069999999999997e-02 5.2827000000000002e+00 6.6417999999999999e-01 3.5951000000000000e+00 0 0 0
3057 444 4 0.0000000000000000e+00 5.2898399999999999e+00 2.4790000000000001e+00 1.8169999999999999e+00 0 0 0
3060 444 4 0.0000000000000000e+00 1.6560500000000000e+00 6.6205000000000003e-01 0.0000000000000000e+00 0 0 0
3064 444 4 0.0000000000000000e+00 3.4729999999999999e+00 6.1128000000000000e+00 0.0000000000000000e+00 0 0 0
3065 444 4 -7.4069999999999997e-02 3.4746700000000001e+00 6.1152300000000004e+00 3.5872899999999999e+00 0 0 0
3066 444 4 0.0000000000000000e+00 1.6560500000000000e+00 4.2959500000000004e+00 0.0000000000000000e+00 0 0 0
3067 444 4 -7.4069999999999997e-02 1.6587700000000001e+00 4.2979000000000003e+00 3.5872199999999999e+00 0 0 0
3068 444 4 0.0000000000000000e+00 3.4729999999999999e+00 4.2959500000000004e+00 1.8169999999999999e+00 0 0 0
3069 444 4 0.0000000000000000e+00 1.6560500000000000e+00 6.1128000000000000e+00 1.8169999999999999e+00 0 0 0
3074 444 4 -7.4069999999999997e-02 3.4724499999999998e+00 2.4784199999999998e+00 3.5947700000000000e+00 0 0 0
3075 444 4 0.0000000000000000e+00 3.4729999999999999e+00 2.4790000000000001e+00 0.0000000000000000e+00 0 0 0
3076 444 4 0.0000000000000000e+00 5.2898399999999999e+00 4.2959500000000004e+00 0.0000000000000000e+00 0 0 0
3077 444 4 0.0000000000000000e+00 5.2898399999999999e+00 6.1128000000000000e+00 1.8169999999999999e+00 0 0 0
3086 444 4 0.0000000000000000e+00 1.6560500000000000e+00 7.9297500000000003e+00 0.0000000000000000e+00 0 0 0
3087 444 4 -7.4069999999999997e-02 1.6624000000000001e+00 7.9331699999999996e+00 3.5777600000000001e+00 0 0 0
3088 444 4 0.0000000000000000e+00 3.4729999999999999e+00 7.9297500000000003e+00 1.8169999999999999e+00 0 0 0
3092 444 4 0.0000000000000000e+00 5.2898399999999999e+00 7.9297500000000003e+00 0.0000000000000000e+00 0 0 0
3093 444 4 -7.4069999999999997e-02 5.2871300000000003e+00 7.9362599999999999e+00 3.5824799999999999e+00 0 0 0
3101 444 4 -7.4069999999999997e-02 5.2858099999999997e+00 4.2948399999999998e+00 3.5884999999999998e+00 0 0 0
2998 444 2 -8.2999999999999996e-01 2.7594115713041445e+00 2.3629797528149075e+00 6.6556443897969730e+00 1 0 0
305 444 1 4.1499999999999998e-01 5.0734039280288963e+00 1.1445723990215335e+00 6.5659422728677699e+00 -2 -1 0
3000 444 1 4.1499999999999998e-01 2.0301928154181974e+00 1.9870673261586258e+00 6.1625300797726785e+00 1 0 0
2999 444 1 4.1499999999999998e-01 3.0626196510362931e+00 3.0933473875070749e+00 6.1163301757221600e+00 1 0 0
553 444 2 -8.2999999999999996e-01 3.3362850593443758e+00 5.1871930714706025e+00 7.5030888108156644e+00 -2 -1 0
554 444 1 4.1499999999999998e-01 3.3440913807739849e+00 5.5552716805710931e+00 6.6195226763068282e+00 -2 -1 0
555 444 1 4.1499999999999998e-01 2.4436173266877517e+00 5.3334483456870130e+00 7.8161162563220454e+00 -2 -1 0
129 444 1 4.1499999999999998e-01 4.8710716492030298e-01 5.5824785650989961e-01 6.9673592065228780e+00 2 0 0
2996 444 1 4.1499999999999998e-01 4.0490982423539462e-02 3.0865117405112006e+00 7.1525568553770986e+00 2 -3 0
438 444 1 4.1499999999999998e-01 5.0111581371464109e-01 5.1466394945474292e+00 8.1219809869835160e+00 -1 0 0
1073 444 1 4.1499999999999998e-01 3.1397867991173158e+00 8.1092629426839089e+00 6.1414761082634080e+00 -1 -1 0
127 444 2 -8.2999999999999996e-01 2.0615081088124577e-02 1.3709422297906979e+00 7.1626694744247210e+00 2 0 0
436 444 2 -8.2999999999999996e-01 9.5616452038388700e-01 5.7325676368223180e+00 8.7268369772042647e+00 -1 0 0
932 444 1 4.1499999999999998e-01 3.3498684998220893e+00 4.4946113807030672e+00 9.8177384369178995e+00 0 -1 0
2467 444 2 -8.2999999999999996e-01 3.2206663071305135e+00 1.5938201662199731e+00 9.3603151925405683e+00 0 1 0
2469 444 1 4.1499999999999998e-01 3.1232746982111239e+00 2.0694240379907023e+00 8.5353615963187188e+00 0 1 0
2749 444 2 -8.2999999999999996e-01 4.8870817213422590e+00 6.5330095670660127e+00 1.1694597557688910e+01 -2 1 0
233 444 1 4.1499999999999998e-01 8.2943229832979315e-01 5.7902583888013552e+00 1.4698938947945297e+01 6 1 0
2362 444 2 -8.2999999999999996e-01 2.5624166131260053e+00 7.8910199147886653e+00 1.1892886069377470e+01 5 3 0
1717 444 2 -8.2999999999999996e-01 5.6185365334444759e-01 1.7432058620137869e+00 1.3249659181911708e+01 3 4 0
1909 444 2 -8.2999999999999996e-01 2.4543992992612433e+00 7.0799018106396856e+00 1.4619342749124138e+01 3 0 0
933 444 1 4.1499999999999998e-01 4.7858422689005149e+00 4.6323335465324531e+00 9.3584923714041253e+00 0 -1 0
2468 444 1 4.1499999999999998e-01 2.3286951818458457e+00 1.5147687198225908e+00 9.6985023599860849e+00 0 1 0
199 444 2 -8.2999999999999996e-01 6.5576736590974105e-01 1.2959272497933030e+00 1.0452947511290525e+01 1 0 0
200 444 1 4.1499999999999998e-01 1.0073349757562640e-01 1.6178544414524909e+00 9.7426429308529006e+00 1 0 0
1476 444 1 4.1499999999999998e-01 2.7501352233177094e+00 5.0871649722989059e+00 1.4090513233098548e+01 -2 2 0
1474 444 2 -8.2999999999999996e-01 2.6707242709013621e+00 4.1876209406437939e+00 1.3773106876207539e+01 -2 2 0
2751 444 1 4.1499999999999998e-01 4.6107005128710714e+00 5.8151012662852715e+00 1.1124989894579866e+01 -2 1 0
1071 444 1 4.1499999999999998e-01 5.3981769919315941e+00 3.2091212267694131e+00 1.0961490167560381e+01 7 5 0
1070 444 1 4.1499999999999998e-01 4.9537858483417878e+00 1.7633528858917760e+00 1.0896948891873341e+01 7 5 0
201 444 1 4.1499999999999998e-01 4.1432835758951231e-01 1.8322854187707953e+00 1.1208102908017498e+01 1 0 0
1475 444 1 4.1499999999999998e-01 3.0429455295402601e+00 4.2104562957791165e+00 1.2891538994557868e+01 -2 2 0
1719 444 1 4.1499999999999998e-01 1.3498693670436821e+00 1.9704980469438358e+00 1.3743219226740264e+01 3 4 0
437 444 1 4.1499999999999998e-01 2.5554896085690970e-01 6.1620913130776458e+00 9.2176313194195103e+00 -1 0 0
1814 444 1 4.1499999999999998e-01 4.8992951062995376e+00 6.5738161946671703e+00 1.5773339207603469e+01 -4 3 0
1193 444 1 4.1499999999999998e-01 1.8334502808159352e+00 3.9036986958418849e+00 1.5183143667521694e+01 -2 4 0
1192 444 2 -8.2999999999999996e-01 1.4779186256813741e+00 3.5963767862776028e+00 1.6017040150021970e+01 -2 4 0
1128 444 1 4.1499999999999998e-01 1.5442484029570134e+00 7.5381949232216874e+00 9.1658222896710253e+00 0 3 0
1718 444 1 4.1499999999999998e-01 2.7902145387149796e-01 2.5684786885938999e+00 1.2855751352357380e+01 3 4 0
2363 444 1 4.1499999999999998e-01 2.4605806013446081e+00 8.0611430838103075e+00 1.0956446381811224e+01 5 3 0
1911 444 1 4.1499999999999998e-01 2.2102814476576120e+00 7.5565373736343808e+00 1.3825959295764411e+01 3 0 0
1815 444 1 4.1499999999999998e-01 3.9754811508094794e+00 7.6944138795511803e+00 1.6200801318080263e+01 -4 3 0
1910 444 1 4.1499999999999998e-01 2.2592902026995891e+00 7.6867011806985266e+00 1.5333457566383515e+01 3 0 0
2364 444 1 4.1499999999999998e-01 3.3929737687806121e+00 7.4202963715827650e+00 1.1962355683158842e+01 5 3 0
931 444 2 -8.2999999999999996e-01 4.2484268501233213e+00 4.5372376165911268e+00 1.0144860173478898e+01 0 -1 0
99 444 1 4.1499999999999998e-01 4.5486842617153345e+00 8.0869562948322002e+00 8.3138283481853374e+00 0 0 0
491 444 1 4.1499999999999998e-01 1.7345906365903478e+00 1.2083296218330904e-02 1.9270066388249479e+01 0 3 0
490 444 2 -8.2999999999999996e-01 1.8562244821218978e+00 9.3761351890800737e-01 1.9058332207876784e+01 0 3 0
2258 444 1 4.1499999999999998e-01 5.4470623918756251e+00 5.0609541540235679e+00 2.0960190157785732e+01 1 6 0
911 444 1 4.1499999999999998e-01 5.0025183734969039e+00 2.7180203543097776e+00 2.0899083020140434e+01 6 -2 0
2022 444 1 4.1499999999999998e-01 4.2358204224508054e+00 1.2335798289449824e+00 1.7135094376831908e+01 4 -1 0
1194 444 1 4.1499999999999998e-01 2.0608690496999054e+00 3.9691500677674361e+00 1.6678433771600169e+01 -2 4 0
141 444 1 4.1499999999999998e-01 5.1816577884792077e+00 3.3853938425392172e+00 1.7713133367479507e+01 -2 0 0
2021 444 1 4.1499999999999998e-01 3.0120048141496558e+00 1.9825077771421427e+00 1.7618082371294324e+01 4 -1 0
140 444 1 4.1499999999999998e-01 4.4477180028309506e+00 4.6095334853622001e+00 1.7208446153739608e+01 -2 0 0
168 444 1 4.1499999999999998e-01 2.5273887754891478e+00 5.0090720614792685e+00 1.8678799494605162e+01 3 -1 0
167 444 1 4.1499999999999998e-01 2.7478959175313773e+00 6.2860110811084029e+00 1.7896048875166922e+01 3 -1 0
1907 444 1 4.1499999999999998e-01 3.5429204373441969e+00 4.4355445198563590e+00 2.0648613703159224e+01 5 2 0
492 444 1 4.1499999999999998e-01 2.4872415413981459e+00 1.2511039291602983e+00 1.9706231251277806e+01 0 3 0
1906 444 2 -8.2999999999999996e-01 2.5941905972506492e+00 4.5545553846975322e+00 2.0693115199057004e+01 5 2 0
166 444 2 -8.2999999999999996e-01 2.7353380746512510e+00 5.3334680615463679e+00 1.7802582524199945e+01 3 -1 0
1908 444 1 4.1499999999999998e-01 2.4785011734024849e+00 5.4012918918084383e+00 2.1124259544461342e+01 5 2 0
2020 444 2 -8.2999999999999996e-01 3.9547848346012220e+00 2.0794855091299511e+00 1.7483942827684281e+01 4 -1 0
2429 444 1 4.1499999999999998e-01 3.0757438889385562e+00 6.9760841897708135e+00 2.2965638420726158e+01 6 -1 0
1993 444 2 -8.2999999999999996e-01 2.1012446604478363e+00 7.7705496762862047e+00 1.8722877991081550e+01 1 1 0
1026 444 1 4.1499999999999998e-01 1.2692725780001766e+00 1.8533229773013582e+00 2.2016759444552317e+01 2 -2 0
1025 444 1 4.1499999999999998e-01 2.2131516869192001e+00 2.9705413325404368e+00 2.1625849608146797e+01 2 -2 0
1024 444 2 -8.2999999999999996e-01 2.1895380180538857e+00 2.1141728783415870e+00 2.2052824216990434e+01 2 -2 0
139 444 2 -8.2999999999999996e-01 5.3205040620968580e+00 4.2924253555825009e+00 1.7440650090055961e+01 -2 0 0
2428 444 2 -8.2999999999999996e-01 2.5078211665709080e+00 6.2078761672764697e+00 2.3025241381094865e+01 6 -1 0
2430 444 1 4.1499999999999998e-01 1.7550618611337909e+00 6.5050107746116206e+00 2.3536413348765372e+01 6 -1 0
1813 444 2 -8.2999999999999996e-01 4.8329926065990989e+00 7.3096045685297835e+00 1.6381986569128852e+01 -4 3 0
910 444 2 -8.2999999999999996e-01 4.7667008759713863e+00 1.8212156313139500e+00 2.1136494153402452e+01 6 -2 0
912 444 1 4.1499999999999998e-01 3.8352843508652219e+00 1.8671259832941307e+00 2.1352336949745425e+01 6 -2 0
138 444 1 4.1499999999999998e-01 2.4272093788037967e+00 1.0940452779480168e+00 2.3856457167645747e+01 0 -2 0
1958 444 1 4.1499999999999998e-01 3.2589866151536770e+00 5.1243249586122790e+00 2.4162352315165460e+01 1 3 0
2257 444 2 -8.2999999999999996e-01 5.3692163019960226e+00 4.4263370211021291e+00 2.0247845836202689e+01 1 6 0
1654 444 2 -8.2999999999999996e-01 7.9512162500871819e-01 8.1311038359901051e+00 2.4269515219674705e+01 -4 -1 0
1995 444 1 4.1499999999999998e-01 1.1880159829105919e+00 8.0306343038712100e+00 1.8843712252632947e+01 1 1 0
1842 444 1 4.1499999999999998e-01 5.1184010992829814e+00 1.6361046587564589e+00 3.1209441031056603e+01 -3 3 0
137 444 1 4.1499999999999998e-01 1.6168768383952850e+00 1.7281129066687593e+00 2.4966959010421004e+01 0 -2 0
2111 444 1 4.1499999999999998e-01 5.0276934409994238e+00 1.2174386745556052e+00 2.7661170828900882e+01 -4 5 0
229 444 2 -8.2999999999999996e-01 5.1372626914142456e+00 6.2583281551191501e+00 2.6277363865590516e+01 -2 1 0
1004 444 1 4.1499999999999998e-01 2.9351155890885718e+00 1.6977576714979807e+00 3.1935368867377388e+01 5 1 0
230 444 1 4.1499999999999998e-01 4.6576239587375898e+00 5.6856053589813813e+00 2.5678893230977462e+01 -2 1 0
1003 444 2 -8.2999999999999996e-01 2.0763731096224443e+00 1.5043478587103194e+00 3.2311382276357541e+01 5 1 0
231 444 1 4.1499999999999998e-01 4.4893594826673597e+00 6.5172778464252712e+00 2.6932648768944969e+01 -2 1 0
1840 444 2 -8.2999999999999996e-01 4.7465783340684657e+00 2.3659643147526914e+00 3.0714178882104797e+01 -3 3 0
282 444 1 4.1499999999999998e-01 1.8007389093289967e+00 3.1512622229853453e+00 3.1911820995834429e+01 4 2 0
1841 444 1 4.1499999999999998e-01 4.6656953713526521e+00 2.0330091780157162e+00 2.9820405609970660e+01 -3 3 0
1489 444 2 -8.2999999999999996e-01 4.4837970605442268e-01 7.1604100566632267e+00 3.0262206057575209e+01 -4 3 0
1559 444 1 4.1499999999999998e-01 3.0695775396482263e+00 5.7540632774593314e+00 2.9043713807349636e+01 0 0 0
192 444 1 4.1499999999999998e-01 7.9547515770225452e-01 3.0940627805614946e+00 2.5943825348095626e+01 3 1 0
1490 444 1 4.1499999999999998e-01 5.6454553208178271e-01 6.2429428416839414e+00 3.0015240511390967e+01 -4 3 0
1334 444 1 4.1499999999999998e-01 4.4237021538738253e+00 3.9847100839440222e+00 3.1111445394907896e+01 -5 1 0
280 444 2 -8.2999999999999996e-01 1.5714719752757722e+00 4.0717405291352913e+00 3.1783802641522801e+01 4 2 0
1333 444 2 -8.2999999999999996e-01 4.1103463335932373e+00 4.8858534257997981e+00 3.1188779165912724e+01 -5 1 0
2262 444 1 4.1499999999999998e-01 3.3524404173116968e+00 7.5871619801522785e+00 3.0273332463856164e+01 -4 0 0
2120 444 1 4.1499999999999998e-01 1.7367891957913868e+00 1.5553392282810146e+00 2.8724807540899025e+01 0 1 0
1335 444 1 4.1499999999999998e-01 3.2407633387120955e+00 4.8047675991260315e+00 3.1580547282297701e+01 -5 1 0
837 444 1 4.1499999999999998e-01 1.1482793434491039e+00 3.9108652416607468e+00 2.8925210054603969e+01 2 1 0
2347 444 2 -8.2999999999999996e-01 1.3608233406582109e+00 7.9386243394202731e+00 2.7103062983372912e+01 2 -1 0
835 444 2 -8.2999999999999996e-01 4.7414862581386985e-01 4.5555168033555589e+00 2.9140161153843593e+01 2 1 0
2112 444 1 4.1499999999999998e-01 3.9959292948643643e+00 3.3161555431251305e-01 2.8326509370100037e+01 -4 5 0
1558 444 2 -8.2999999999999996e-01 3.3354304102251264e+00 6.2698634079042090e+00 2.8282461988590679e+01 0 0 0
191 444 1 4.1499999999999998e-01 6.5383448736259464e-01 4.0772636348494835e+00 2.4801394175917700e+01 3 1 0
2121 444 1 4.1499999999999998e-01 2.9686425931656113e+00 2.2974396005968263e+00 2.8251817728475032e+01 0 1 0
190 444 2 -8.2999999999999996e-01 1.2607623232345910e+00 3.4435240885727665e+00 2.5183814061442291e+01 3 1 0
281 444 1 4.1499999999999998e-01 8.9079770838792738e-01 4.0581845131768066e+00 3.1110949975941132e+01 4 2 0
2119 444 2 -8.2999999999999996e-01 2.0749063277151230e+00 2.4364740938257219e+00 2.8565086938042047e+01 0 1 0
1959 444 1 4.1499999999999998e-01 2.8471423892907231e+00 4.0453544698546118e+00 2.5141179244394447e+01 1 3 0
1560 444 1 4.1499999999999998e-01 2.5142085088357780e+00 6.5982189659494956e+00 2.7916388732135815e+01 0 0 0
1957 444 2 -8.2999999999999996e-01 3.5813803840393583e+00 4.6116440492894082e+00 2.4903602881654024e+01 1 3 0
136 444 2 -8.2999999999999996e-01 1.9394631734137602e+00 8.8347768626873779e-01 2.4652696266549203e+01 0 -2 0
2348 444 1 4.1499999999999998e-01 4.3946753708954173e-01 7.7170449208091876e+00 2.7238113003142782e+01 2 -1 0
1655 444 1 4.1499999999999998e-01 1.2131521631924675e+00 8.1144079385751073e+00 2.5130447572228551e+01 -4 -1 0
2110 444 2 -8.2999999999999996e-01 4.4782994447055398e+00 1.1502639100810030e+00 2.8442122807945289e+01 -4 5 0
738 444 1 4.1499999999999998e-01 4.8465869931804217e+00 3.0879268441387984e+00 2.5111912752635824e+01 0 -2 0
121 444 2 -8.2999999999999996e-01 5.4177506872083461e+00 2.4401798067550232e-01 3.1931449916424505e+01 0 -3 0
2260 444 2 -8.2999999999999996e-01 2.8775314913133387e+00 8.0809818380971361e+00 3.0941789602446537e+01 -4 0 0
2261 444 1 4.1499999999999998e-01 1.9889792148345700e+00 7.7259256459907855e+00 3.0916459712205679e+01 -4 0 0
2717 444 1 4.1499999999999998e-01 7.8512055929477476e-01 1.0450041919763231e-01 2.5500947276910768e+01 -1 2 0
3084 444 4 0.0000000000000000e+00 3.4729999999999999e+00 9.7467000000000006e+00 0.0000000000000000e+00 0 0 0
3085 444 4 -7.4069999999999997e-02 3.4744500000000000e+00 9.7546199999999992e+00 3.5907600000000000e+00 0 0 0
3089 444 4 0.0000000000000000e+00 1.6560500000000000e+00 9.7467000000000006e+00 1.8169999999999999e+00 0 0 0
3095 444 4 0.0000000000000000e+00 5.2898399999999999e+00 9.7467000000000006e+00 1.8169999999999999e+00 0 0 0
3108 444 4 -7.4069999999999997e-02 1.6631800000000001e+00 1.1567690000000001e+01 3.5925099999999999e+00 0 0 0
3109 444 4 0.0000000000000000e+00 3.4729999999999999e+00 1.1563549999999999e+01 1.8169999999999999e+00 0 0 0
3110 444 4 0.0000000000000000e+00 1.6560500000000000e+00 1.3380500000000000e+01 1.8169999999999999e+00 0 0 0
3113 444 4 0.0000000000000000e+00 5.2898399999999999e+00 1.1563549999999999e+01 0.0000000000000000e+00 0 0 0
3114 444 4 -7.4069999999999997e-02 5.2827000000000002e+00 1.1565680000000000e+01 3.5951000000000000e+00 0 0 0
3116 444 4 0.0000000000000000e+00 5.2898399999999999e+00 1.3380500000000000e+01 1.8169999999999999e+00 0 0 0
3119 444 4 0.0000000000000000e+00 1.6560500000000000e+00 1.1563549999999999e+01 0.0000000000000000e+00 0 0 0
3125 444 4 0.0000000000000000e+00 1.6560500000000000e+00 1.5197450000000000e+01 0.0000000000000000e+00 0 0 0
3126 444 4 -7.4069999999999997e-02 1.6587700000000001e+00 1.5199400000000001e+01 3.5872199999999999e+00 0 0 0
3127 444 4 0.0000000000000000e+00 3.4729999999999999e+00 1.5197450000000000e+01 1.8169999999999999e+00 0 0 0
3133 444 4 -7.4069999999999997e-02 3.4724499999999998e+00 1.3379920000000000e+01 3.5947700000000000e+00 0 0 0
3134 444 4 0.0000000000000000e+00 3.4729999999999999e+00 1.3380500000000000e+01 0.0000000000000000e+00 0 0 0
3135 444 4 0.0000000000000000e+00 5.2898399999999999e+00 1.5197450000000000e+01 0.0000000000000000e+00 0 0 0
3160 444 4 -7.4069999999999997e-02 5.2858099999999997e+00 1.5196339999999999e+01 3.5884999999999998e+00 0 0 0
2394 444 1 4.1499999999999998e-01 3.9206695503675459e+00 1.4522974706126368e+01 5.9004432133633111e+00 -1 1 0
1074 444 1 4.1499999999999998e-01 3.5408260766819284e+00 9.3817064479565211e+00 6.8569834282437805e+00 -1 -1 0
1738 444 2 -8.2999999999999996e-01 1.2502797598944766e+00 1.3701524835056844e+01 6.7837465169316724e+00 1 -5 0
1740 444 1 4.1499999999999998e-01 9.9326190559164740e-01 1.3087990665053981e+01 6.0954516389697746e+00 1 -5 0
1739 444 1 4.1499999999999998e-01 1.5602425294011424e+00 1.3144778765953735e+01 7.4980218826214946e+00 1 -5 0
2392 444 2 -8.2999999999999996e-01 4.2490895757195233e+00 1.4835565719369241e+01 6.7434491619785053e+00 -1 1 0
1828 444 2 -8.2999999999999996e-01 3.6705932803003993e-01 9.4694727545916564e+00 7.1777639530340442e+00 1 2 0
1830 444 1 4.1499999999999998e-01 1.2263516404660717e+00 9.2074429291057740e+00 6.8473260515923657e+00 1 2 0
1573 444 2 -8.2999999999999996e-01 3.8636077516792811e+00 1.1174319191970127e+01 7.1710879086441617e+00 -1 -1 0
923 444 1 4.1499999999999998e-01 4.6928042836908288e+00 1.3846032000133658e+01 7.9113202237492759e+00 2 0 0
2871 444 1 4.1499999999999998e-01 1.6245935774635456e+00 1.5413993365641828e+01 6.5201122609449484e+00 0 -1 0
2393 444 1 4.1499999999999998e-01 4.1186511701222308e+00 1.5783418701743694e+01 6.7152926076287223e+00 -1 1 0
1072 444 2 -8.2999999999999996e-01 3.1650105632014163e+00 8.5144717823677478e+00 7.0083103619847602e+00 -1 -1 0
1574 444 1 4.1499999999999998e-01 4.2002482174882338e+00 1.1862932418864458e+01 7.7444261559559751e+00 -1 -1 0
1575 444 1 4.1499999999999998e-01 3.6296686314126512e+00 1.1628872728437871e+01 6.3618380116345543e+00 -1 -1 0
2869 444 2 -8.2999999999999996e-01 1.4725115160320030e+00 1.6350212656206029e+01 6.6489429967036973e+00 0 -1 0
871 444 2 -8.2999999999999996e-01 1.6452296797960007e+00 1.1577871465619937e+01 8.5660674563172741e+00 2 6 0
872 444 1 4.1499999999999998e-01 1.0422617172816939e+00 1.0943312670062788e+01 8.1787735944624806e+00 2 6 0
873 444 1 4.1499999999999998e-01 2.5077584563653437e+00 1.1317647072279573e+01 8.2427113357978001e+00 2 6 0
1933 444 2 -8.2999999999999996e-01 6.7360853677603860e-01 1.1370302780084373e+01 1.0895004597527443e+01 0 -2 0
1935 444 1 4.1499999999999998e-01 1.2497776688254278e+00 1.1279440693960181e+01 1.0136054618631084e+01 0 -2 0
1342 444 2 -8.2999999999999996e-01 2.5903022851564579e+00 1.5490970143186924e+01 9.1293344946112978e+00 3 -2 0
2277 444 1 4.1499999999999998e-01 2.4995030625470629e+00 9.9151179890557462e+00 1.2670023291354054e+01 2 -3 0
1568 444 1 4.1499999999999998e-01 3.0865231019038064e-01 1.1775277302653032e+01 1.6036489677404443e+01 5 4 0
1337 444 1 4.1499999999999998e-01 3.8902526095355352e+00 1.6271631908318277e+01 9.7350197398716958e+00 2 3 0
2275 444 2 -8.2999999999999996e-01 2.4751532607072377e+00 1.0861637681774795e+01 1.2810521176138691e+01 2 -3 0
1344 444 1 4.1499999999999998e-01 3.0765310820450180e+00 1.5043830766598784e+01 8.4366004340623793e+00 3 -2 0
719 444 1 4.1499999999999998e-01 4.2690344380572034e+00 1.1567150746989425e+01 1.3387650447215847e+01 -2 4 0
2927 444 1 4.1499999999999998e-01 2.3159335433181805e+00 1.4487074346543691e+01 1.0644537740847106e+01 2 1 0
2928 444 1 4.1499999999999998e-01 2.0508851366344381e+00 1.3127651593857738e+01 1.1255778096008092e+01 2 1 0
2926 444 2 -8.2999999999999996e-01 2.1762303126010618e+00 1.4048770538379621e+01 1.1483945608142138e+01 2 1 0
718 444 2 -8.2999999999999996e-01 4.9360128331780979e+00 1.2193257107840333e+01 1.3669364834755447e+01 -2 4 0
2276 444 1 4.1499999999999998e-01 1.9421467907861121e+00 1.1197584868992880e+01 1.2089913131450093e+01 2 -3 0
1549 444 2 -8.2999999999999996e-01 4.0138942040644308e+00 1.4252639201212034e+01 1.5072056852893022e+01 -1 1 0
1261 444 2 -8.2999999999999996e-01 2.0848924930482573e+00 1.5395483851119888e+01 1.3600977427064482e+01 2 5 0
1550 444 1 4.1499999999999998e-01 4.0503429659515238e+00 1.3473398852523916e+01 1.4517359457891368e+01 -1 1 0
1263 444 1 4.1499999999999998e-01 2.1649506952871049e+00 1.4797044981383142e+01 1.2858216692860863e+01 2 5 0
1134 444 1 4.1499999999999998e-01 4.4752943881031078e+00 1.1927194593434667e+01 1.5931822443866306e+01 1 -2 0
1941 444 1 4.1499999999999998e-01 3.2498472565228498e-01 9.2055408394465985e+00 1.1888357130857488e+01 -3 4 0
1127 444 1 4.1499999999999998e-01 2.5707077944548566e+00 8.4600670853383928e+00 8.5425826550959307e+00 0 3 0
269 444 1 4.1499999999999998e-01 5.2790545201559729e+00 1.5258062602874221e+01 1.4951669555088888e+01 -2 4 0
1131 444 1 4.1499999999999998e-01 1.1834821661053514e-01 1.4324287910934926e+01 1.1800288694255130e+01 4 0 0
1567 444 2 -8.2999999999999996e-01 6.3877287570387309e-01 1.2672190293578051e+01 1.6089397104871189e+01 5 4 0
1551 444 1 4.1499999999999998e-01 3.3200829216323342e+00 1.4788532804225918e+01 1.4687768990898700e+01 -1 1 0
1133 444 1 4.1499999999999998e-01 3.0712404931359645e+00 1.2474445372177762e+01 1.6076888381216659e+01 1 -2 0
922 444 2 -8.2999999999999996e-01 4.8972525379995258e+00 1.3123233189820018e+01 8.5046116422603433e+00 2 0 0
1343 444 1 4.1499999999999998e-01 1.8459372489757364e+00 1.5891337597982840e+01 8.6800469525936261e+00 3 -2 0
97 444 2 -8.2999999999999996e-01 5.4055408476095508e+00 8.4125025583362874e+00 8.5895973005068953e+00 0 0 0
1149 444 1 4.1499999999999998e-01 5.4312015030587899e+00 1.1793736901466948e+01 9.3724489853499744e+00 -2 0 0
1338 444 1 4.1499999999999998e-01 5.2496529185311438e+00 1.5709842456189334e+01 1.0093234839181449e+01 2 3 0
1262 444 1 4.1499999999999998e-01 2.0533029188173235e+00 1.6266425773624714e+01 1.3205131573583337e+01 2 5 0
1126 444 2 -8.2999999999999996e-01 2.1711855023515598e+00 8.2287314917153864e+00 9.3810917385099373e+00 0 3 0
521 444 1 4.1499999999999998e-01 2.8131263142796397e+00 8.8917576038660098e+00 1.7456655117130687e+01 1 5 0
457 444 2 -8.2999999999999996e-01 1.2722916075237722e+00 1.6069295859450651e+01 1.6983300300213788e+01 1 2 0
2828 444 1 4.1499999999999998e-01 3.7808047898354245e+00 9.1655383598417064e+00 2.2109276649101716e+01 -3 -1 0
1445 444 1 4.1499999999999998e-01 3.7339073002309803e-01 1.0656599070364923e+01 2.4096863812512954e+01 1 -3 0
1428 444 1 4.1499999999999998e-01 2.8967716379491648e+00 1.0325640949212696e+01 2.4165848996193063e+01 -1 1 0
1175 444 1 4.1499999999999998e-01 3.5106126334088650e+00 1.3942659429598999e+01 1.7213486966372734e+01 1 -2 0
2827 444 2 -8.2999999999999996e-01 3.7693398025990152e+00 9.0733795210021189e+00 2.3061960905920287e+01 -3 -1 0
526 444 2 -8.2999999999999996e-01 4.5596170961201959e-01 1.0988974559859230e+01 2.0831946723275582e+01 3 0 0
459 444 1 4.1499999999999998e-01 2.1229033292543198e+00 1.5748910548151999e+01 1.7283374926975014e+01 1 2 0
1155 444 1 4.1499999999999998e-01 4.5230576533214040e-01 1.3633642631154816e+01 1.8789269563460561e+01 0 1 0
497 444 1 4.1499999999999998e-01 2.2864599073214620e-01 1.4070148740093638e+01 2.4360945337630774e+01 4 0 0
1480 444 2 -8.2999999999999996e-01 5.3277980593503607e+00 1.4288297538745461e+01 1.9566915367982272e+01 0 0 0
2892 444 1 4.1499999999999998e-01 9.5757777779904829e-01 1.1683213177917956e+01 1.9158934904397000e+01 1 -4 0
527 444 1 4.1499999999999998e-01 1.3219605602248383e+00 1.0890341608304677e+01 2.1227610080426679e+01 3 0 0
1174 444 2 -8.2999999999999996e-01 3.3728676607427897e+00 1.4518056391065842e+01 1.7965933979018860e+01 1 -2 0
1176 444 1 4.1499999999999998e-01 3.9406697353969689e+00 1.4160520072944287e+01 1.8648576817033014e+01 1 -2 0
959 444 1 4.1499999999999998e-01 4.9776223290344550e+00 1.4556915292803192e+01 2.2727667576906008e+01 2 -4 0
2330 444 1 4.1499999999999998e-01 2.0601442986697154e+00 1.5806062178652724e+01 2.2837562484996734e+01 1 2 0
1132 444 2 -8.2999999999999996e-01 3.6487934237345439e+00 1.1778887637533709e+01 1.6391314681555915e+01 1 -2 0
2890 444 2 -8.2999999999999996e-01 1.5323366849367741e+00 1.2205486193588658e+01 1.8599367534501116e+01 1 -4 0
2891 444 1 4.1499999999999998e-01 2.3741110836918087e+00 1.2207175343269487e+01 1.9055048967112196e+01 1 -4 0
1465 444 2 -8.2999999999999996e-01 3.8601327028932499e+00 1.3278988417085422e+01 2.2833283813815921e+01 -2 3 0
522 444 1 4.1499999999999998e-01 2.7344806604781207e+00 1.0014712294502596e+01 1.6444388859592451e+01 1 5 0
2235 444 1 4.1499999999999998e-01 3.6775546713756020e+00 1.0267417551374241e+01 1.9837337776573431e+01 -1 1 0
705 444 1 4.1499999999999998e-01 5.1333946336986704e+00 1.1744538664139904e+01 2.3891165777318072e+01 3 2 0
2986 444 2 -8.2999999999999996e-01 3.7596429684481230e+00 1.2155142457453080e+01 2.0374773681298063e+01 -3 5 0
2234 444 1 4.1499999999999998e-01 4.6958322561563790e+00 9.1493989492194654e+00 1.9908329537197424e+01 -1 1 0
2233 444 2 -8.2999999999999996e-01 3.8074279507573330e+00 9.3463772131691005e+00 1.9611396750756665e+01 -1 1 0
960 444 1 4.1499999999999998e-01 5.1233648804480696e+00 1.5768551090970645e+01 2.1831792204807716e+01 2 -4 0
2988 444 1 4.1499999999999998e-01 4.4560206369263895e+00 1.2748736009566676e+01 2.0093816984052101e+01 -3 5 0
2987 444 1 4.1499999999999998e-01 3.4740854353890138e+00 1.2503008164455997e+01 2.1219568392192617e+01 -3 5 0
2829 444 1 4.1499999999999998e-01 4.6312093767123850e+00 9.3805205186134497e+00 2.3343168879966527e+01 -3 -1 0
2329 444 2 -8.2999999999999996e-01 2.6228936063779420e+00 1.5507872933186489e+01 2.2122979889081279e+01 1 2 0
1467 444 1 4.1499999999999998e-01 3.1205860008906137e+00 1.3847210940888701e+01 2.2617817871954788e+01 -2 3 0
1466 444 1 4.1499999999999998e-01 3.7694129625320354e+00 1.3112410611139254e+01 2.3771502074668305e+01 -2 3 0
1154 444 1 4.1499999999999998e-01 1.4385208474473332e-01 1.5037290243615614e+01 1.8313323259718349e+01 0 1 0
1656 444 1 4.1499999999999998e-01 1.0606896482417627e+00 8.9687591935672337e+00 2.3889990207453199e+01 -4 -1 0
1569 444 1 4.1499999999999998e-01 9.2101494215179003e-01 1.2770786616111804e+01 1.6998710042339468e+01 5 4 0
496 444 2 -8.2999999999999996e-01 3.2596157333116615e-01 1.5021288294730020e+01 2.4315168691199492e+01 4 0 0
2331 444 1 4.1499999999999998e-01 2.8864291438992580e+00 1.6311054075151848e+01 2.1673890782136578e+01 1 2 0
520 444 2 -8.2999999999999996e-01 2.5908660633403544e+00 9.0735552324880615e+00 1.6543538356964952e+01 1 5 0
1994 444 1 4.1499999999999998e-01 2.6022123623981872e+00 8.4127172177062359e+00 1.9225753454079747e+01 1 1 0
2015 444 1 4.1499999999999998e-01 1.1934092534741383e+00 1.2687339940998045e+01 2.8214795883329735e+01 2 -1 0
1479 444 1 4.1499999999999998e-01 6.1300736778979972e-02 1.2194243810455195e+01 2.6281975537604211e+01 0 7 0
584 444 1 4.1499999999999998e-01 3.8591491137982197e+00 9.5527533566707170e+00 3.2018152094519607e+01 0 3 0
2290 444 2 -8.2999999999999996e-01 2.8392707677431757e+00 1.5203613520198337e+01 3.1095957785951811e+01 2 1 0
1223 444 1 4.1499999999999998e-01 5.3757202099178780e+00 1.4308708195422863e+01 2.9770550560609905e+01 -4 -5 0
2306 444 1 4.1499999999999998e-01 4.3628898017648101e+00 1.2481221696610572e+01 2.6249423299997567e+01 3 4 0
2375 444 1 4.1499999999999998e-01 1.8644798186470211e+00 1.4777889896913766e+01 2.9193081809786580e+01 4 1 0
1413 444 1 4.1499999999999998e-01 2.9414319434782998e-01 1.4385250173349565e+01 3.1712022270360773e+01 4 -1 0
2310 444 1 4.1499999999999998e-01 4.2196250571832419e+00 1.0597489733670498e+01 2.7031504132740579e+01 -1 1 0