LAMMPS data file via write_data, version 11 Aug 2017, timestep = 1000000

3570 atoms
13 atom types
2024 bonds
5 bond types
1018 angles
5 angle types
12 dihedrals
4 dihedral types
9 impropers
1 improper types

0.0000000000000000e+00 3.2704500000000003e+01 xlo xhi
0.0000000000000000e+00 3.2704500000000003e+01 ylo yhi
0.0000000000000000e+00 8.0000000000000000e+01 zlo zhi

Masses

1 1.0079
2 15.9994
3 39.0983
4 63.546
5 12.011
6 15.9994
7 1.0079
8 1.0079
9 12.011
10 15.9994
11 15.9994
12 15.9994
13 1.0079

Bond Coeffs # harmonic

1 450 0.9572
2 570 1.229
3 450 1.364
4 570 1.229
5 553 0.945

Angle Coeffs # harmonic

1 100 123.32
2 85 124
3 55 104.52
4 35 113
5 100 123.32

Dihedral Coeffs # charmm

1 0.922 1 180 0
2 3.741 2 0 0
3 0.922 1 0 0
4 3.741 2 180 0

Improper Coeffs # umbrella

1 21 0

Atoms # full

3049 444 4 -7.4069999999999997e-02 1.6618500000000000e+00 6.8201000000000001e-01 3.5978500000000002e+00 0 0 0
3051 444 4 0.0000000000000000e+00 1.6560500000000000e+00 2.4790000000000001e+00 1.8169999999999999e+00 0 0 0
3060 444 4 0.0000000000000000e+00 1.6560500000000000e+00 6.6205000000000003e-01 0.0000000000000000e+00 0 0 0
27 444 1 4.1499999999999998e-01 4.5548044915008895e-01 3.5916138976412260e+00 7.0461072139322045e+00 2 1 0
1073 444 1 4.1499999999999998e-01 1.6114049474788579e+00 2.5125834884548659e-01 7.5759527318810100e+00 -2 3 0
2007 444 1 4.1499999999999998e-01 7.9444818683668927e-02 3.8415737447253364e+00 8.5901569842544028e+00 1 2 0
2006 444 1 4.1499999999999998e-01 1.1811689105405028e+00 3.4809643852363097e+00 9.5638407789873554e+00 1 2 0
2635 444 2 -8.2999999999999996e-01 1.4983345784551831e+00 1.9455844795614472e+00 1.2041205689417392e+01 -4 0 0
387 444 1 4.1499999999999998e-01 5.0252355281645045e-01 1.6682310596930749e-01 1.1726280969367581e+01 1 -2 0
16 444 2 -8.2999999999999996e-01 8.6781410394391900e-01 2.4281244727840381e+00 1.5163631937728747e+01 2 -4 0
2005 444 2 -8.2999999999999996e-01 3.9441133458575578e-01 4.0191153252684195e+00 9.4764455139559001e+00 1 2 0
21 444 1 4.1499999999999998e-01 6.2216202486463457e-01 3.1135603810668275e+00 1.5784973694284274e+01 2 -4 0
18 444 1 4.1499999999999998e-01 2.2140378803487931e-01 1.7358597257698782e+00 1.5302035418460884e+01 2 -4 0
2636 444 1 4.1499999999999998e-01 1.8326675330062834e+00 2.2454306095624741e+00 1.2886513451224211e+01 -4 0 0
2624 444 1 4.1499999999999998e-01 6.2263681048526853e-01 8.5662854543513745e-01 1.7955812542225637e+01 -1 1 0
2616 444 1 4.1499999999999998e-01 1.3986046184474037e+00 3.6116191326373666e+00 1.9422072297795626e+01 -2 1 0
3066 444 4 0.0000000000000000e+00 1.6560500000000000e+00 4.2959500000000004e+00 0.0000000000000000e+00 0 0 0
3067 444 4 -7.4069999999999997e-02 1.6863200000000000e+00 4.2596100000000003e+00 3.5860599999999998e+00 0 0 0
3069 444 4 0.0000000000000000e+00 1.6560500000000000e+00 6.1128000000000000e+00 1.8169999999999999e+00 0 0 0
3086 444 4 0.0000000000000000e+00 1.6560500000000000e+00 7.9297500000000003e+00 0.0000000000000000e+00 0 0 0
3087 444 4 -7.4069999999999997e-02 1.6948099999999999e+00 7.9609699999999997e+00 3.5793100000000000e+00 0 0 0
638 444 1 4.1499999999999998e-01 1.5417264305092144e+00 6.6736781548289024e+00 6.4636361588642650e+00 2 -5 0
637 444 2 -8.2999999999999996e-01 2.0242941092711213e+00 6.3010332465796717e+00 7.2015357929226225e+00 2 -5 0
708 444 1 4.1499999999999998e-01 5.2868208991014853e-02 6.4943563887065210e+00 7.9374294253369060e+00 1 -1 0
1727 444 1 4.1499999999999998e-01 1.0800038628238093e+00 5.6942482441998816e+00 1.0929502556304595e+01 -2 3 0
1728 444 1 4.1499999999999998e-01 5.8940797533064271e-01 5.8895813864812272e+00 1.2348324678017974e+01 -2 3 0
430 444 2 -8.2999999999999996e-01 1.5198982825326404e+00 7.3693727458557587e+00 1.4640374145610997e+01 0 0 0
1322 444 1 4.1499999999999998e-01 1.0364865809990131e+00 8.0231013385351506e+00 1.1469802465190407e+01 1 -5 0
431 444 1 4.1499999999999998e-01 7.6079828777923131e-01 6.8562665673091718e+00 1.4363388123612578e+01 0 0 0
1726 444 2 -8.2999999999999996e-01 9.9923175350334614e-01 6.3538498215369561e+00 1.1618439407288241e+01 -2 3 0
1437 444 1 4.1499999999999998e-01 5.4795601761463242e-01 6.7017113268377182e+00 1.8800281573634017e+01 -5 4 0
1435 444 2 -8.2999999999999996e-01 5.3595091502176984e-01 6.9602465790143766e+00 1.7878735489841592e+01 -5 4 0
1752 444 1 4.1499999999999998e-01 5.3150232046790369e-01 5.1107754282068161e+00 1.7327617865754537e+01 -6 -2 0
1750 444 2 -8.2999999999999996e-01 1.4379040039278237e-01 4.4556680385947995e+00 1.6747320097935404e+01 -6 -2 0
3089 444 4 0.0000000000000000e+00 1.6560500000000000e+00 9.7467000000000006e+00 1.8169999999999999e+00 0 0 0
3107 444 4 -7.4069999999999997e-02 1.6618500000000000e+00 1.1583510000000000e+01 3.5978500000000002e+00 0 0 0
3118 444 4 0.0000000000000000e+00 1.6560500000000000e+00 1.1563549999999999e+01 0.0000000000000000e+00 0 0 0
2099 444 1 4.1499999999999998e-01 1.2541483490418968e+00 9.5205161521274206e+00 7.9966522811527652e+00 -1 -2 0
981 444 1 4.1499999999999998e-01 5.2189091896725082e-01 1.2054736837251138e+01 7.1091904967415722e+00 1 -1 0
2098 444 2 -8.2999999999999996e-01 3.5808729852332194e-01 9.3270671521743864e+00 8.2721219841564881e+00 -1 -2 0
1321 444 2 -8.2999999999999996e-01 1.1026809830249655e+00 8.8868082508658226e+00 1.1062542743890774e+01 1 -5 0
1323 444 1 4.1499999999999998e-01 8.8679629315969422e-01 8.7354352597800471e+00 1.0142373414658339e+01 1 -5 0
716 444 1 4.1499999999999998e-01 7.6354956272907426e-01 1.0213607000058886e+01 1.4720876158611834e+01 4 -1 0
717 444 1 4.1499999999999998e-01 1.3168113166314397e+00 8.9002812260072357e+00 1.5231727806945250e+01 4 -1 0
715 444 2 -8.2999999999999996e-01 8.9967818987312997e-01 9.7107554544885684e+00 1.5523895986683524e+01 4 -1 0
207 444 1 4.1499999999999998e-01 1.6507438751307686e+00 1.0075652020186663e+01 1.2447199413949008e+01 -2 0 0
1779 444 1 4.1499999999999998e-01 4.6880320129280306e-01 1.2068930502748264e+01 1.7438815797186567e+01 1 1 0
1778 444 1 4.1499999999999998e-01 3.5926646867918366e-01 1.0605104122271628e+01 1.7068533378609462e+01 1 1 0
1777 444 2 -8.2999999999999996e-01 2.7504480317418256e-02 1.1256448903192462e+01 1.7686526245864190e+01 1 1 0
3109 444 4 0.0000000000000000e+00 1.6560500000000000e+00 1.3380500000000000e+01 1.8169999999999999e+00 0 0 0
3124 444 4 0.0000000000000000e+00 1.6560500000000000e+00 1.5197450000000000e+01 0.0000000000000000e+00 0 0 0
3125 444 4 -7.4069999999999997e-02 1.6863200000000000e+00 1.5161110000000001e+01 3.5860599999999998e+00 0 0 0
589 444 2 -8.2999999999999996e-01 1.8520976589420457e+00 1.3020785623950127e+01 6.6993447768166012e+00 -1 -2 0
1819 444 2 -8.2999999999999996e-01 1.5502594648698995e+00 1.5869126832401308e+01 7.1254621959932880e+00 1 -4 0
1821 444 1 4.1499999999999998e-01 1.6667303049663760e+00 1.5770823598085757e+01 6.1804739472078127e+00 1 -4 0
591 444 1 4.1499999999999998e-01 1.5682199160366224e+00 1.3533017491363353e+01 5.9422033623826662e+00 -1 -2 0
1117 444 2 -8.2999999999999996e-01 1.8984137560475087e+00 1.3194266427271511e+01 1.5337633728422819e+01 -2 -1 0
1119 444 1 4.1499999999999998e-01 1.0808433521636114e+00 1.3098531936558505e+01 1.4849120796848924e+01 -2 -1 0
462 444 1 4.1499999999999998e-01 1.7813346198203248e+00 1.3340709557369786e+01 8.3939228423012420e+00 -1 0 0
1103 444 1 4.1499999999999998e-01 6.7170911205362460e-01 1.5021919744928123e+01 1.2815679458212836e+01 1 -1 0
1104 444 1 4.1499999999999998e-01 5.3907839216182940e-01 1.6210741138311015e+01 1.3743584487501215e+01 1 -1 0
460 444 2 -8.2999999999999996e-01 1.5903629654680858e+00 1.3357665295917313e+01 9.3317263951213487e+00 -1 0 0
1704 444 1 4.1499999999999998e-01 1.9324100560812085e+00 1.4005195382708337e+01 1.1609294429802018e+01 -3 3 0
1102 444 2 -8.2999999999999996e-01 2.4812382019935114e-01 1.5876612793506037e+01 1.2895094345892192e+01 1 -1 0
461 444 1 4.1499999999999998e-01 6.5197691320222062e-01 1.3177660045826734e+01 9.3888406001088374e+00 -1 0 0
2303 444 1 4.1499999999999998e-01 1.2262160893793932e+00 1.3881928349097144e+01 1.6686387135397350e+01 1 -4 0
2304 444 1 4.1499999999999998e-01 1.2550581939029453e+00 1.4738032251367347e+01 1.7934645514058708e+01 1 -4 0
2302 444 2 -8.2999999999999996e-01 6.9161200328059236e-01 1.4147452593959040e+01 1.7434669909232291e+01 1 -4 0
3127 444 4 0.0000000000000000e+00 1.6560500000000000e+00 1.7014299999999999e+01 1.8169999999999999e+00 0 0 0
3144 444 4 0.0000000000000000e+00 1.6560500000000000e+00 1.8831250000000001e+01 0.0000000000000000e+00 0 0 0
3145 444 4 -7.4069999999999997e-02 1.6948099999999999e+00 1.8862469999999998e+01 3.5793100000000000e+00 0 0 0
1820 444 1 4.1499999999999998e-01 8.1982862811871016e-01 1.6481264939018459e+01 7.2148458832613409e+00 1 -4 0
1534 444 2 -8.2999999999999996e-01 1.5344440888647977e+00 1.7070488799053585e+01 1.4842929682659429e+01 -1 -3 0
824 444 1 4.1499999999999998e-01 6.6416310813144419e-01 2.0349787539523096e+01 8.9328920449972227e+00 1 -5 0
1188 444 1 4.1499999999999998e-01 1.7016583469791069e+00 1.8667026880034026e+01 9.8589382650591073e+00 6 -2 0
1535 444 1 4.1499999999999998e-01 1.7772584087882410e+00 1.7495700273544202e+01 1.5665406559250332e+01 -1 -3 0
823 444 2 -8.2999999999999996e-01 4.6537530511898284e-01 1.9754455670569374e+01 9.6555918980756967e+00 1 -5 0
1536 444 1 4.1499999999999998e-01 2.0023898079605016e+00 1.7564792212059636e+01 1.4169934316535516e+01 -1 -3 0
825 444 1 4.1499999999999998e-01 4.5525708419009117e-02 2.0308048987837299e+01 1.0313993355401502e+01 1 -5 0
2172 444 1 4.1499999999999998e-01 1.9802634823638174e+00 1.6647263523968459e+01 1.9426087741298790e+01 0 1 0
2211 444 1 4.1499999999999998e-01 3.5356047162891718e-01 1.9874554500107440e+01 1.8787562991891118e+01 3 -1 0
2210 444 1 4.1499999999999998e-01 3.1675896269486259e-01 2.0406730204605768e+01 1.7370760684434387e+01 3 -1 0
3147 444 4 0.0000000000000000e+00 1.6560500000000000e+00 2.0648199999999999e+01 1.8169999999999999e+00 0 0 0
3165 444 4 -7.4069999999999997e-02 1.6618500000000000e+00 2.2485009999999999e+01 3.5978500000000002e+00 0 0 0
3167 444 4 0.0000000000000000e+00 1.6560500000000000e+00 2.4282000000000000e+01 1.8169999999999999e+00 0 0 0
3176 444 4 0.0000000000000000e+00 1.6560500000000000e+00 2.2465050000000002e+01 0.0000000000000000e+00 0 0 0
994 444 2 -8.2999999999999996e-01 7.7553739970551339e-01 2.1145642488343910e+01 7.1713853488709676e+00 2 2 0
995 444 1 4.1499999999999998e-01 4.8516431508940883e-01 2.0745619844723873e+01 6.3516920762814619e+00 2 2 0
996 444 1 4.1499999999999998e-01 1.4350132632201069e+00 2.1786373984111755e+01 6.9053279783481489e+00 2 2 0
1958 444 1 4.1499999999999998e-01 5.2109881784042356e-01 2.1768725520406399e+01 1.5571884305038456e+01 5 0 0
294 444 1 4.1499999999999998e-01 1.6424939144474104e-01 2.3959049731142411e+01 1.5824129425572870e+01 -1 3 0
1014 444 1 4.1499999999999998e-01 9.7563930202290794e-01 2.3098983624430605e+01 1.1627429393494547e+01 1 1 0
1012 444 2 -8.2999999999999996e-01 6.1232093090731143e-01 2.3693163042666274e+01 1.2284073848495742e+01 1 1 0
1673 444 1 4.1499999999999998e-01 1.4467996099385274e+00 2.3002373974984827e+01 9.2075038201852699e+00 4 0 0
1957 444 2 -8.2999999999999996e-01 1.4758542162724952e+00 2.1710731212819450e+01 1.5608091411178972e+01 5 0 0
1013 444 1 4.1499999999999998e-01 1.2877329503876482e+00 2.3745414010512214e+01 1.2960328451407804e+01 1 1 0
1672 444 2 -8.2999999999999996e-01 1.4343198983466114e+00 2.2573690940304139e+01 1.0063253301095692e+01 4 0 0
237 444 1 4.1499999999999998e-01 6.2115125976257324e-01 2.2099761204830550e+01 1.8171759831768910e+01 6 2 0
1959 444 1 4.1499999999999998e-01 1.6972260850584242e+00 2.1955177386996912e+01 1.6506686155139686e+01 5 0 0
235 444 2 -8.2999999999999996e-01 3.8735651519734510e-01 2.2975871301977872e+01 1.7865161346681536e+01 6 2 0
2209 444 2 -8.2999999999999996e-01 7.7316624906402820e-01 2.0508515157090518e+01 1.8205963791980878e+01 3 -1 0
3182 444 4 0.0000000000000000e+00 1.6560500000000000e+00 2.6098949999999999e+01 0.0000000000000000e+00 0 0 0
3183 444 4 -7.4069999999999997e-02 1.6863200000000000e+00 2.6062609999999999e+01 3.5860599999999998e+00 0 0 0
3185 444 4 0.0000000000000000e+00 1.6560500000000000e+00 2.7915800000000001e+01 1.8169999999999999e+00 0 0 0
2431 444 2 -8.2999999999999996e-01 1.0701179774582168e+00 2.5759433115251010e+01 6.9376696091820040e+00 7 -1 0
2432 444 1 4.1499999999999998e-01 7.0812112528156990e-01 2.4884800432712925e+01 6.7955136165813288e+00 7 -1 0
2433 444 1 4.1499999999999998e-01 7.2647268909509233e-01 2.6282069285943450e+01 6.2131064533766782e+00 7 -1 0
807 444 1 4.1499999999999998e-01 1.3533883443536394e+00 2.5809130947934278e+01 1.2631789025450274e+01 1 -3 0
805 444 2 -8.2999999999999996e-01 1.1120554654362500e+00 2.6731901395848325e+01 1.2712319446649962e+01 1 -3 0
2338 444 2 -8.2999999999999996e-01 7.7478897696814986e-01 2.5884579001432733e+01 9.6287444237843651e+00 2 4 0
2340 444 1 4.1499999999999998e-01 8.2443012294064766e-01 2.6066355095945703e+01 8.6902750313909749e+00 2 4 0
806 444 1 4.1499999999999998e-01 1.5830236880930164e+00 2.7036317200902793e+01 1.3488046367017025e+01 1 -3 0
792 444 1 4.1499999999999998e-01 1.9722735208688436e+00 2.8372177084601667e+01 1.5430724014890590e+01 7 -5 0
293 444 1 4.1499999999999998e-01 6.4196394880636332e-01 2.5270476609018612e+01 1.5237747855715391e+01 -1 3 0
120 444 1 4.1499999999999998e-01 1.6807016833772375e+00 2.7902474155294648e+01 1.1578987993378631e+01 -2 -4 0
2339 444 1 4.1499999999999998e-01 1.6849243735436659e+00 2.5759193150248311e+01 9.8973772140302270e+00 2 4 0
577 444 2 -8.2999999999999996e-01 6.9602637998138583e-01 2.5429391991853986e+01 1.9476857986276034e+01 1 3 0
578 444 1 4.1499999999999998e-01 2.5459462494491014e-01 2.4718395911392271e+01 1.9012255673165061e+01 1 3 0
3202 444 4 0.0000000000000000e+00 1.6560500000000000e+00 2.9732749999999999e+01 0.0000000000000000e+00 0 0 0
3203 444 4 -7.4069999999999997e-02 1.6948099999999999e+00 2.9763970000000000e+01 3.5793100000000000e+00 0 0 0
3205 444 4 0.0000000000000000e+00 1.6560500000000000e+00 3.1549700000000001e+01 1.8169999999999999e+00 0 0 0
2720 444 1 4.1499999999999998e-01 3.3330398738248598e-02 3.1003681439424387e+01 7.6479927043644746e+00 -6 -1 0
1544 444 1 4.1499999999999998e-01 1.5605006673653445e+00 2.9091890551930774e+01 7.9132458795793239e+00 2 3 0
2721 444 1 4.1499999999999998e-01 6.7637253436615002e-02 3.1484202379886543e+01 6.2127862803742149e+00 -6 -1 0
1545 444 1 4.1499999999999998e-01 1.3620139758344614e+00 2.9578021356872611e+01 9.3331663864910048e+00 2 3 0
790 444 2 -8.2999999999999996e-01 1.4929075620144325e+00 2.9029950097767752e+01 1.5934484443360322e+01 7 -5 0
1543 444 2 -8.2999999999999996e-01 9.9576464572059353e-01 2.9646531185054346e+01 8.4514638787583269e+00 2 3 0
386 444 1 4.1499999999999998e-01 8.6888403417937388e-01 3.1577053529531234e+01 1.2420932860732973e+01 1 -3 0
791 444 1 4.1499999999999998e-01 5.7996509612419600e-01 2.8916252450181233e+01 1.5670211646976204e+01 7 -5 0
385 444 2 -8.2999999999999996e-01 1.5610871257452968e-01 3.2007107465692052e+01 1.1948453081023734e+01 1 -3 0
2084 444 1 4.1499999999999998e-01 1.9995342535919964e+00 3.2163873625816009e+01 1.9101090238566467e+01 -3 -3 0
2723 444 1 4.1499999999999998e-01 6.4033380176256072e-01 2.9409627141015722e+01 1.9792386292890402e+01 2 -1 0
2862 444 1 4.1499999999999998e-01 1.6732734736875574e+00 3.1894654129192329e+01 1.6617961707477683e+01 0 -4 0
2140 444 2 -8.2999999999999996e-01 1.8498569613359070e+00 2.9063340252510169e+01 1.8624138626919258e+01 -1 -1 0
2141 444 1 4.1499999999999998e-01 1.8599446090906060e+00 2.9203880583838583e+01 1.7677366157373982e+01 -1 -1 0
2623 444 2 -8.2999999999999996e-01 6.0066950047478540e-01 3.2652916641027247e+01 1.7654316079595972e+01 -1 0 0
3050 444 4 0.0000000000000000e+00 3.4729999999999999e+00 6.6205000000000003e-01 1.8169999999999999e+00 0 0 0
3074 444 4 -7.4069999999999997e-02 3.4825499999999998e+00 2.4664999999999999e+00 3.5945900000000002e+00 0 0 0
3075 444 4 0.0000000000000000e+00 3.4729999999999999e+00 2.4790000000000001e+00 0.0000000000000000e+00 0 0 0
1870 444 2 -8.2999999999999996e-01 2.0696189620253249e+00 3.3707729443278915e+00 6.8982033190092897e+00 3 -2 0
1074 444 1 4.1499999999999998e-01 2.9973229050987005e+00 1.6069059035619357e-01 6.9735208739190817e+00 -2 3 0
1872 444 1 4.1499999999999998e-01 2.1246292329871692e+00 2.4151918016305549e+00 6.8898296982713898e+00 3 -2 0
1871 444 1 4.1499999999999998e-01 2.5719301446541531e+00 3.6468012795754330e+00 6.1315720493166577e+00 3 -2 0
1072 444 2 -8.2999999999999996e-01 2.3669390269221884e+00 7.8573023576820122e-01 7.3315348977231380e+00 -2 3 0
1632 444 1 4.1499999999999998e-01 3.7814611619333207e+00 3.0304683170723514e+00 9.7142332971463858e+00 0 -1 0
1630 444 2 -8.2999999999999996e-01 2.8644899289313126e+00 2.7794791122168117e+00 9.6028780333773440e+00 0 -1 0
942 444 1 4.1499999999999998e-01 2.7716419899679572e+00 1.4648606778862867e+00 1.4770123532195999e+01 -2 2 0
1631 444 1 4.1499999999999998e-01 2.7253743828942651e+00 2.7926134355312171e+00 8.6559323212670449e+00 0 -1 0
941 444 1 4.1499999999999998e-01 2.7316443575315947e+00 7.7778413996358917e-02 1.4164897823990646e+01 -2 2 0
1691 444 1 4.1499999999999998e-01 3.2808696217589257e+00 6.6818455119726006e-01 9.1520792978866226e+00 4 8 0
940 444 2 -8.2999999999999996e-01 3.2320182049812471e+00 8.9372275970256443e-01 1.4155235266014538e+01 -2 2 0
2637 444 1 4.1499999999999998e-01 2.1427304853802611e+00 2.2552527915463281e+00 1.1404737642509296e+01 -4 0 0
514 444 2 -8.2999999999999996e-01 3.5345892194386077e+00 2.6613438409628731e+00 1.8152482494015697e+01 -1 -2 0
2615 444 1 4.1499999999999998e-01 2.8919786077843193e+00 3.8591396158828628e+00 1.9443563291820361e+01 -2 1 0
516 444 1 4.1499999999999998e-01 3.7734710948553607e+00 3.3871938260668264e+00 1.7576019029416113e+01 -1 -2 0
515 444 1 4.1499999999999998e-01 3.0522609553473035e+00 2.0561867678663508e+00 1.7589120826358940e+01 -1 -2 0
3064 444 4 0.0000000000000000e+00 3.4729999999999999e+00 6.1128000000000000e+00 0.0000000000000000e+00 0 0 0
3065 444 4 -7.4069999999999997e-02 3.4683099999999998e+00 6.1124599999999996e+00 3.5891000000000002e+00 0 0 0
3068 444 4 0.0000000000000000e+00 3.4729999999999999e+00 4.2959500000000004e+00 1.8169999999999999e+00 0 0 0
3088 444 4 0.0000000000000000e+00 3.4729999999999999e+00 7.9297500000000003e+00 1.8169999999999999e+00 0 0 0
1325 444 1 4.1499999999999998e-01 3.7490557715699491e+00 6.7456973892290737e+00 7.2581227931479342e+00 1 -2 0
639 444 1 4.1499999999999998e-01 2.1488527319240953e+00 5.3814149945404974e+00 6.9669734770466611e+00 2 -5 0
432 444 1 4.1499999999999998e-01 2.2680450951242555e+00 6.9263120645684886e+00 1.4240117199318052e+01 0 0 0
2923 444 2 -8.2999999999999996e-01 3.6309633326252970e+00 5.6307798554140840e+00 1.3660330877253598e+01 4 0 0
2259 444 1 4.1499999999999998e-01 4.0657615943024661e+00 5.1116027078057744e+00 1.5559935520503371e+01 3 -4 0
2925 444 1 4.1499999999999998e-01 3.1545225617513797e+00 4.8276432441547152e+00 1.3450074454575828e+01 4 0 0
2997 444 1 4.1499999999999998e-01 3.4128867140007269e+00 7.8181991625170895e+00 1.2293525268368056e+01 4 -2 0
2614 444 2 -8.2999999999999996e-01 2.0638215657768693e+00 4.1963208528450329e+00 1.9785172752975512e+01 -2 1 0
1601 444 1 4.1499999999999998e-01 2.3886602277463953e+00 6.7725862379213515e+00 1.7235525925507680e+01 -1 0 0
1602 444 1 4.1499999999999998e-01 2.8403557116420153e+00 7.1931297265426934e+00 1.8617918582909898e+01 -1 0 0
1600 444 2 -8.2999999999999996e-01 3.1504525992029024e+00 6.7741453144569608e+00 1.7815096201712915e+01 -1 0 0
2258 444 1 4.1499999999999998e-01 3.9686598831631019e+00 5.5193157333196678e+00 1.7014664355939516e+01 3 -4 0
3084 444 4 0.0000000000000000e+00 3.4729999999999999e+00 9.7467000000000006e+00 0.0000000000000000e+00 0 0 0
3085 444 4 -7.4069999999999997e-02 3.4815800000000001e+00 9.7726400000000009e+00 3.5995100000000000e+00 0 0 0
3108 444 4 0.0000000000000000e+00 3.4729999999999999e+00 1.1563549999999999e+01 1.8169999999999999e+00 0 0 0
2283 444 1 4.1499999999999998e-01 3.8042840918043592e+00 9.9451413889818223e+00 7.4136103017445949e+00 -1 1 0
2281 444 2 -8.2999999999999996e-01 2.9178361596693256e+00 9.6142582249880135e+00 7.2688394905990457e+00 -1 1 0
2282 444 1 4.1499999999999998e-01 2.9649168706342754e+00 9.1625367622892728e+00 6.4262462921133183e+00 -1 1 0
205 444 2 -8.2999999999999996e-01 2.1461981738664240e+00 1.0544342281841026e+01 1.3118828718528519e+01 -2 0 0
206 444 1 4.1499999999999998e-01 2.9221536102260748e+00 1.0868939237264055e+01 1.2661924497418479e+01 -2 0 0
2818 444 2 -8.2999999999999996e-01 4.0294592407589915e+00 9.4725010980434039e+00 1.4631628334824086e+01 3 -3 0
2819 444 1 4.1499999999999998e-01 3.1143697991257397e+00 9.7480146352516925e+00 1.4577442646370139e+01 3 -3 0
906 444 1 4.1499999999999998e-01 3.6940231220617967e+00 8.9412755689185452e+00 9.2277146578245937e+00 0 3 0
1812 444 1 4.1499999999999998e-01 3.5128925617042146e+00 1.2132213530079156e+01 1.9657953978684866e+01 -6 1 0
1810 444 2 -8.2999999999999996e-01 3.6720971072273345e+00 1.1188881490849100e+01 1.9626161279983592e+01 -6 1 0
1811 444 1 4.1499999999999998e-01 3.5618085890497988e+00 1.0957838158074978e+01 1.8703834046510835e+01 -6 1 0
3126 444 4 0.0000000000000000e+00 3.4729999999999999e+00 1.5197450000000000e+01 1.8169999999999999e+00 0 0 0
3132 444 4 -7.4069999999999997e-02 3.4825499999999998e+00 1.3368000000000000e+01 3.5945900000000002e+00 0 0 0
3133 444 4 0.0000000000000000e+00 3.4729999999999999e+00 1.3380500000000000e+01 0.0000000000000000e+00 0 0 0
590 444 1 4.1499999999999998e-01 2.6873587783708195e+00 1.2638153490403608e+01 6.4307121511931324e+00 -1 -2 0
1118 444 1 4.1499999999999998e-01 2.2473953511305349e+00 1.2305003246057622e+01 1.5398086821766340e+01 -2 -1 0
1703 444 1 4.1499999999999998e-01 2.5054578148725701e+00 1.3178342405192778e+01 1.2740588189387754e+01 -3 3 0
2130 444 1 4.1499999999999998e-01 3.3469856907490394e+00 1.5963841285920989e+01 1.4978525196574632e+01 4 -4 0
1702 444 2 -8.2999999999999996e-01 2.2105854910800193e+00 1.4062707148171286e+01 1.2523374909546403e+01 -3 3 0
446 444 1 4.1499999999999998e-01 2.8839492413828376e+00 1.5941122049908900e+01 8.3243629384919462e+00 -6 -1 0
2129 444 1 4.1499999999999998e-01 3.3339131572556973e+00 1.4683748401219423e+01 1.4170387975983077e+01 4 -4 0
2128 444 2 -8.2999999999999996e-01 3.9232101369464147e+00 1.5351672829410802e+01 1.4520870726312085e+01 4 -4 0
1199 444 1 4.1499999999999998e-01 3.7696049397988300e+00 1.5422469720098912e+01 1.2209852650589781e+01 -2 0 0
445 444 2 -8.2999999999999996e-01 3.6181863031192147e+00 1.6103718462422950e+01 8.9165538676361109e+00 -6 -1 0
2379 444 1 4.1499999999999998e-01 3.4254931943369926e+00 1.3540043721825677e+01 9.5293603779338802e+00 -3 1 0
1200 444 1 4.1499999999999998e-01 3.9794105612301478e+00 1.5766103772748625e+01 1.0750471920265046e+01 -2 0 0
2171 444 1 4.1499999999999998e-01 3.1772305469988704e+00 1.6312105670089839e+01 1.8561892205599992e+01 0 1 0
2170 444 2 -8.2999999999999996e-01 2.2492835887884595e+00 1.6109789805677845e+01 1.8681116844902359e+01 0 1 0
3122 444 4 0.0000000000000000e+00 3.4729999999999999e+00 1.7014299999999999e+01 0.0000000000000000e+00 0 0 0
3123 444 4 -7.4069999999999997e-02 3.4683099999999998e+00 1.7013960000000001e+01 3.5891000000000002e+00 0 0 0
3146 444 4 0.0000000000000000e+00 3.4729999999999999e+00 1.8831250000000001e+01 1.8169999999999999e+00 0 0 0
2482 444 2 -8.2999999999999996e-01 3.2918755132222781e+00 2.0221141807082230e+01 7.1486635957229634e+00 4 0 0
2484 444 1 4.1499999999999998e-01 2.4335986445303472e+00 2.0022505345135290e+01 6.7743154401941643e+00 4 0 0
2533 444 2 -8.2999999999999996e-01 2.7704197502112349e+00 1.8467046448759188e+01 1.2987523480067926e+01 -1 2 0
2535 444 1 4.1499999999999998e-01 3.5578524615614828e+00 1.9008855274497115e+01 1.2936300097238236e+01 -1 2 0
2534 444 1 4.1499999999999998e-01 2.6617569274121933e+00 1.8117378125534827e+01 1.2103127857250724e+01 -1 2 0
1186 444 2 -8.2999999999999996e-01 2.1747053289567253e+00 1.8098572848266798e+01 1.0466654968973662e+01 6 -2 0
1794 444 1 4.1499999999999998e-01 3.6600255402171094e+00 1.9868609240465673e+01 1.5218264917656127e+01 0 4 0
1187 444 1 4.1499999999999998e-01 2.7666182034862778e+00 1.7592263239796214e+01 9.9103084522342684e+00 6 -2 0
2832 444 1 4.1499999999999998e-01 3.3716630942320336e+00 1.9205312096313602e+01 1.7468799147811687e+01 0 5 0
2831 444 1 4.1499999999999998e-01 3.6635150879623177e+00 1.7792723736220761e+01 1.7009113777584570e+01 0 5 0
181 444 2 -8.2999999999999996e-01 3.1776458872173352e+00 1.9947339164873171e+01 1.9341605507413210e+01 1 0 0
2830 444 2 -8.2999999999999996e-01 3.1706487250670130e+00 1.8578765043168818e+01 1.6773627315442678e+01 0 5 0
183 444 1 4.1499999999999998e-01 2.2366589469551563e+00 2.0056722831403452e+01 1.9204451769826612e+01 1 0 0
3142 444 4 0.0000000000000000e+00 3.4729999999999999e+00 2.0648199999999999e+01 0.0000000000000000e+00 0 0 0
3143 444 4 -7.4069999999999997e-02 3.4815800000000001e+00 2.0674140000000001e+01 3.5995100000000000e+00 0 0 0
3166 444 4 0.0000000000000000e+00 3.4729999999999999e+00 2.2465050000000002e+01 1.8169999999999999e+00 0 0 0
3190 444 4 -7.4069999999999997e-02 3.4825499999999998e+00 2.4269500000000001e+01 3.5945900000000002e+00 0 0 0
3191 444 4 0.0000000000000000e+00 3.4729999999999999e+00 2.4282000000000000e+01 0.0000000000000000e+00 0 0 0
1507 444 2 -8.2999999999999996e-01 2.6142387091256718e+00 2.2995545279344455e+01 6.7507540677070077e+00 0 6 0
1508 444 1 4.1499999999999998e-01 3.4957324130145535e+00 2.3309837401820793e+01 6.5497028840678402e+00 0 6 0
1509 444 1 4.1499999999999998e-01 2.0476869027145135e+00 2.3749794084004296e+01 6.5883976387635901e+00 0 6 0
2483 444 1 4.1499999999999998e-01 3.2732207838830232e+00 2.1165470277725777e+01 7.3039954996169199e+00 4 0 0
1793 444 1 4.1499999999999998e-01 3.1736108250190882e+00 2.1290407929499192e+01 1.5034459762640548e+01 0 4 0
727 444 2 -8.2999999999999996e-01 2.5845981881810149e+00 2.3709612098498404e+01 1.4074651958739494e+01 -2 -1 0
728 444 1 4.1499999999999998e-01 2.0591347984092354e+00 2.3048697067275715e+01 1.4525552607607914e+01 -2 -1 0
1674 444 1 4.1499999999999998e-01 2.1334633966235748e+00 2.1921672947449721e+01 1.0015262036341978e+01 4 0 0
729 444 1 4.1499999999999998e-01 3.2025865785279399e+00 2.4017994582328463e+01 1.4737390375435226e+01 -2 -1 0
1792 444 2 -8.2999999999999996e-01 3.9499227333543665e+00 2.0738083488318889e+01 1.4942209194631568e+01 0 4 0
2682 444 1 4.1499999999999998e-01 3.9509141875175713e+00 2.3917482178801723e+01 1.2316083203173976e+01 -7 -1 0
182 444 1 4.1499999999999998e-01 3.5139720006079855e+00 2.0839990608963376e+01 1.9420919687578550e+01 1 0 0
969 444 1 4.1499999999999998e-01 3.5254805953337902e+00 2.3197229122352052e+01 1.8501624214432898e+01 0 -2 0
967 444 2 -8.2999999999999996e-01 2.9981454895022321e+00 2.3391079052364589e+01 1.7726658443624586e+01 0 -2 0
968 444 1 4.1499999999999998e-01 2.0927554084179749e+00 2.3333528063994294e+01 1.8031926826323513e+01 0 -2 0
1992 444 1 4.1499999999999998e-01 3.9541675231893594e+00 2.4236752004617887e+01 1.6672389446768307e+01 5 0 0
3180 444 4 0.0000000000000000e+00 3.4729999999999999e+00 2.7915800000000001e+01 0.0000000000000000e+00 0 0 0
3181 444 4 -7.4069999999999997e-02 3.4683099999999998e+00 2.7915459999999999e+01 3.5891000000000002e+00 0 0 0
3184 444 4 0.0000000000000000e+00 3.4729999999999999e+00 2.6098949999999999e+01 1.8169999999999999e+00 0 0 0
2031 444 1 4.1499999999999998e-01 2.1463001580219649e+00 2.7187903133071949e+01 6.8753571967749130e+00 1 1 0
2029 444 2 -8.2999999999999996e-01 2.4472572335137364e+00 2.8096430681733963e+01 6.8906745850339508e+00 1 1 0
2030 444 1 4.1499999999999998e-01 2.4731163542158083e+00 2.8356234311478524e+01 5.9697700746147566e+00 1 1 0
2707 444 2 -8.2999999999999996e-01 2.9456038558091642e+00 2.6864028924375855e+01 1.4911167939816814e+01 2 -2 0
532 444 2 -8.2999999999999996e-01 3.4180915472619295e+00 2.5441575719390215e+01 9.4786345831722905e+00 -4 -1 0
2708 444 1 4.1499999999999998e-01 3.3965885505229347e+00 2.6046890047263343e+01 1.5123603099123430e+01 2 -2 0
2709 444 1 4.1499999999999998e-01 3.6292066875928595e+00 2.7428662360792771e+01 1.4550463413897541e+01 2 -2 0
119 444 1 4.1499999999999998e-01 2.9823490784835038e+00 2.8440152169936791e+01 1.1023551289779148e+01 -2 -4 0
534 444 1 4.1499999999999998e-01 3.8336782631307749e+00 2.5412153160086536e+01 8.6168603127421477e+00 -4 -1 0
533 444 1 4.1499999999999998e-01 3.6450636183457825e+00 2.4604311022054418e+01 9.8832372789884619e+00 -4 -1 0
2142 444 1 4.1499999999999998e-01 2.2490120616699798e+00 2.8201506461063758e+01 1.8743089689654497e+01 -1 -1 0
2728 444 2 -8.2999999999999996e-01 3.1526346050281169e+00 2.6779089520962291e+01 1.9185188551280930e+01 2 1 0
2730 444 1 4.1499999999999998e-01 2.3615831513147669e+00 2.6260873731226397e+01 1.9037125726361435e+01 2 1 0
3200 444 4 0.0000000000000000e+00 3.4729999999999999e+00 3.1549700000000001e+01 0.0000000000000000e+00 0 0 0
3201 444 4 -7.4069999999999997e-02 3.4815800000000001e+00 3.1575640000000000e+01 3.5995100000000000e+00 0 0 0
3204 444 4 0.0000000000000000e+00 3.4729999999999999e+00 2.9732749999999999e+01 1.8169999999999999e+00 0 0 0
2829 444 1 4.1499999999999998e-01 3.9289819358973261e+00 3.0970993471631285e+01 7.4378068787529363e+00 -6 1 0
2477 444 1 4.1499999999999998e-01 4.0867231453706090e+00 3.1060508349126458e+01 1.2993983391923502e+01 -2 0 0
2860 444 2 -8.2999999999999996e-01 2.2131442664744765e+00 3.1649713899546807e+01 1.5866446133957586e+01 0 -4 0
272 444 1 4.1499999999999998e-01 2.3037435897362273e+00 3.0169296402752135e+01 1.1729915058636994e+01 0 -3 0
273 444 1 4.1499999999999998e-01 3.0101418098906736e+00 3.1346500484854090e+01 1.1091881520947062e+01 0 -3 0
271 444 2 -8.2999999999999996e-01 2.7394027484380064e+00 3.0995269548092104e+01 1.1940155641974187e+01 0 -3 0