LAMMPS data file via write_data, version 11 Aug 2017, timestep = 1000000

3579 atoms
14 atom types
2024 bonds
5 bond types
1018 angles
5 angle types
12 dihedrals
4 dihedral types
9 impropers
1 improper types

0.0000000000000000e+00 3.2704500000000003e+01 xlo xhi
0.0000000000000000e+00 3.2704500000000003e+01 ylo yhi
0.0000000000000000e+00 6.5000000000000000e+01 zlo zhi

Masses

1 1.0079
2 15.9994
3 39.0983
4 63.546
5 12.011
6 15.9994
7 1.0079
8 12.011
9 1.0079
10 12.011
11 15.9994
12 15.9994
13 15.9994
14 1.0079

Bond Coeffs # harmonic

1 450 0.9572
2 570 1.229
3 450 1.364
4 570 1.229
5 553 0.945

Angle Coeffs # harmonic

1 100 123.32
2 85 124
3 55 104.52
4 35 113
5 100 123.32

Dihedral Coeffs # charmm

1 0.922 1 180 0
2 3.741 2 0 0
3 0.922 1 0 0
4 3.741 2 180 0

Improper Coeffs # umbrella

1 21 0

Atoms # full

3049 444 4 -7.4069999999999997e-02 1.6729300000000000e+00 6.6310000000000002e-01 3.5998700000000001e+00 0 0 0
3050 444 4 0.0000000000000000e+00 3.4729999999999999e+00 6.6205000000000003e-01 1.8169999999999999e+00 0 0 0
3051 444 4 0.0000000000000000e+00 1.6560500000000000e+00 2.4790000000000001e+00 1.8169999999999999e+00 0 0 0
3054 444 4 0.0000000000000000e+00 5.2898399999999999e+00 6.6205000000000003e-01 0.0000000000000000e+00 0 0 0
3055 444 4 -7.4069999999999997e-02 5.2731399999999997e+00 6.5798999999999996e-01 3.5986500000000001e+00 0 0 0
3057 444 4 0.0000000000000000e+00 5.2898399999999999e+00 2.4790000000000001e+00 1.8169999999999999e+00 0 0 0
3060 444 4 0.0000000000000000e+00 1.6560500000000000e+00 6.6205000000000003e-01 0.0000000000000000e+00 0 0 0
3064 444 4 0.0000000000000000e+00 3.4729999999999999e+00 6.1128000000000000e+00 0.0000000000000000e+00 0 0 0
3065 444 4 -7.4069999999999997e-02 3.4731700000000001e+00 6.1136699999999999e+00 3.5860099999999999e+00 0 0 0
3066 444 4 0.0000000000000000e+00 1.6560500000000000e+00 4.2959500000000004e+00 0.0000000000000000e+00 0 0 0
3067 444 4 -7.4069999999999997e-02 1.6572600000000000e+00 4.2998900000000004e+00 3.5711200000000001e+00 0 0 0
3068 444 4 0.0000000000000000e+00 3.4729999999999999e+00 4.2959500000000004e+00 1.8169999999999999e+00 0 0 0
3069 444 4 0.0000000000000000e+00 1.6560500000000000e+00 6.1128000000000000e+00 1.8169999999999999e+00 0 0 0
3074 444 4 -7.4069999999999997e-02 3.4698699999999998e+00 2.4657300000000002e+00 3.5980400000000001e+00 0 0 0
3075 444 4 0.0000000000000000e+00 3.4729999999999999e+00 2.4790000000000001e+00 0.0000000000000000e+00 0 0 0
3076 444 4 0.0000000000000000e+00 5.2898399999999999e+00 4.2959500000000004e+00 0.0000000000000000e+00 0 0 0
3077 444 4 0.0000000000000000e+00 5.2898399999999999e+00 6.1128000000000000e+00 1.8169999999999999e+00 0 0 0
3086 444 4 0.0000000000000000e+00 1.6560500000000000e+00 7.9297500000000003e+00 0.0000000000000000e+00 0 0 0
3087 444 4 -7.4069999999999997e-02 1.6818000000000000e+00 7.9511500000000002e+00 3.5834700000000002e+00 0 0 0
3088 444 4 0.0000000000000000e+00 3.4729999999999999e+00 7.9297500000000003e+00 1.8169999999999999e+00 0 0 0
3092 444 4 0.0000000000000000e+00 5.2898399999999999e+00 7.9297500000000003e+00 0.0000000000000000e+00 0 0 0
3093 444 4 -7.4069999999999997e-02 5.2915000000000001e+00 7.9253200000000001e+00 3.5686499999999999e+00 0 0 0
3101 444 4 -7.4069999999999997e-02 5.2601800000000001e+00 4.2736599999999996e+00 3.5808300000000002e+00 0 0 0
1366 444 2 -8.2999999999999996e-01 1.0397591017677199e+00 2.6021057738489053e+00 7.3767572354617004e+00 -7 -2 0
475 444 2 -8.2999999999999996e-01 1.0510404099728796e+00 5.3800010447672300e+00 6.9981610210157346e+00 4 -1 0
476 444 1 4.1499999999999998e-01 2.3351740165127718e-01 5.8139335567403201e+00 6.7540479422911712e+00 4 -1 0
1368 444 1 4.1499999999999998e-01 1.2687941468947337e+00 3.4342210613982580e+00 6.9628019988759906e+00 -7 -2 0
477 444 1 4.1499999999999998e-01 1.7373320392062066e+00 5.9837420314777310e+00 6.7140253736266029e+00 4 -1 0
1367 444 1 4.1499999999999998e-01 1.6527040030841214e+00 1.9702998331524397e+00 7.0007895998376446e+00 -7 -2 0
2692 444 2 -8.2999999999999996e-01 2.9510850066061471e+00 8.5817877662583297e-01 6.5853276060621484e+00 0 6 0
2693 444 1 4.1499999999999998e-01 3.5864273094258490e+00 3.1897053670084957e-01 7.0563126582005111e+00 0 6 0
282 444 1 4.1499999999999998e-01 3.7344972529323455e+00 7.5050709927745389e+00 6.2887617759294701e+00 0 0 0
288 444 1 4.1499999999999998e-01 2.8640116453789597e+00 4.7845573914660342e+00 7.9780214848070212e+00 -2 2 0
287 444 1 4.1499999999999998e-01 4.1246104215451149e+00 5.6206816353199631e+00 8.0387023765077608e+00 -2 2 0
280 444 2 -8.2999999999999996e-01 2.9967273941333636e+00 8.0860137889705985e+00 6.4743245114432293e+00 0 0 0
2694 444 1 4.1499999999999998e-01 3.1214156672837534e+00 6.7744223444894525e-01 5.6609068442246882e+00 0 6 0
1279 444 2 -8.2999999999999996e-01 5.3245955684869326e+00 2.8858968072766800e+00 7.1813717935548178e+00 4 -4 0
2860 444 2 -8.2999999999999996e-01 5.2797468947070705e+00 6.2261896932640175e+00 7.1921974752247140e+00 1 5 0
1280 444 1 4.1499999999999998e-01 4.5408676555577161e+00 2.6239234573180070e+00 6.6982853620033485e+00 4 -4 0
286 444 2 -8.2999999999999996e-01 3.4846631526309948e+00 5.1746995585396691e+00 8.5934990479979945e+00 -2 2 0
2576 444 1 4.1499999999999998e-01 2.3943481227847072e+00 6.7874698475658892e+00 8.9615129167770107e+00 -1 3 0
1840 444 2 -8.2999999999999996e-01 1.2128800715433457e+00 4.9230174255075596e+00 1.0957865676126620e+01 2 0 0
1437 444 1 4.1499999999999998e-01 3.3243530825557990e+00 1.9965166221474198e+00 1.3192454785232592e+01 0 -2 0
1436 444 1 4.1499999999999998e-01 3.2904464832519644e+00 1.6012872067513315e+00 1.1731448538881660e+01 0 -2 0
1435 444 2 -8.2999999999999996e-01 3.1054210675813438e+00 2.3309497568728852e+00 1.2322710228762251e+01 0 -2 0
1842 444 1 4.1499999999999998e-01 1.1464302479162849e+00 5.8222809293999047e+00 1.0636708861549788e+01 2 0 0
2577 444 1 4.1499999999999998e-01 1.4693127608409451e+00 7.8976162709072923e+00 8.5100932181508426e+00 -1 3 0
757 444 2 -8.2999999999999996e-01 3.9936501261317594e+00 4.7871667035263750e+00 1.4145791207900967e+01 0 3 0
759 444 1 4.1499999999999998e-01 4.6687829443743993e+00 4.4475652420894702e+00 1.4733241804387591e+01 0 3 0
2575 444 2 -8.2999999999999996e-01 2.0247323515877795e+00 7.6251878330268070e+00 9.2405206816488672e+00 -1 3 0
993 444 1 4.1499999999999998e-01 5.2744289551221497e+00 2.1773992063972853e+00 8.9866309129403099e+00 0 0 0
8 444 3 1.0000000000000000e+00 3.7415115342980121e+00 4.8052439999477992e+00 1.1174678645983997e+01 0 1 0
70 444 2 -8.2999999999999996e-01 2.8956842181496589e+00 3.2930044663283792e-01 1.4499370345717175e+01 -3 -1 0
2227 444 2 -8.2999999999999996e-01 6.6386210259925305e-01 7.9036663491397716e+00 1.2715933404787574e+01 -1 1 0
3031 444 3 1.0000000000000000e+00 2.7462394017359912e+00 7.0646810028506870e+00 1.4181584398591829e+01 0 -3 0
2944 444 2 -8.2999999999999996e-01 3.8682517724251904e+00 7.5640195887845758e+00 1.1751828131012969e+01 6 -2 0
2945 444 1 4.1499999999999998e-01 3.4010275065470132e+00 7.7308334689281883e+00 1.0933227563297550e+01 6 -2 0
991 444 2 -8.2999999999999996e-01 5.4346658208153587e+00 1.9429287496632570e+00 9.9007316418085480e+00 0 0 0
2064 444 1 4.1499999999999998e-01 2.0272515669142774e-02 3.1592911873100498e+00 8.9040874275432902e+00 5 3 0
1849 444 2 -8.2999999999999996e-01 1.6634605663526270e-01 2.8588396407196894e+00 1.2779547534838878e+01 -6 0 0
2573 444 1 4.1499999999999998e-01 1.1805193996424426e+00 4.9334994899049116e+00 1.6230632561980080e+01 -4 2 0
2574 444 1 4.1499999999999998e-01 1.6154889911517031e-01 6.0185111132204687e+00 1.5954328385752024e+01 -4 2 0
2229 444 1 4.1499999999999998e-01 2.7182882003124575e-02 8.0545844236740400e+00 1.2017295401212317e+01 -1 1 0
2572 444 2 -8.2999999999999996e-01 8.7672928161754005e-01 5.5301621517263637e+00 1.5546573350760154e+01 -4 2 0
1841 444 1 4.1499999999999998e-01 5.1656749264463364e-01 4.4524701216922669e+00 1.0499644291122747e+01 2 0 0
758 444 1 4.1499999999999998e-01 3.1729837789864668e+00 4.4445600642271517e+00 1.4499852281814123e+01 0 3 0
1851 444 1 4.1499999999999998e-01 1.0953595458656620e+00 2.6283148204001505e+00 1.2774587577435614e+01 -6 0 0
78 444 1 4.1499999999999998e-01 5.4455683378969990e+00 1.9985749782910133e-02 1.2882096502213791e+01 4 -1 0
1850 444 1 4.1499999999999998e-01 1.4671231020185069e-01 3.7816580804875630e+00 1.2526066127007597e+01 -6 0 0
2426 444 1 4.1499999999999998e-01 3.9210073529873579e+00 1.1009836623253997e+00 1.5963031111815731e+01 0 2 0
71 444 1 4.1499999999999998e-01 2.0353091696632784e+00 1.2481160581940684e-01 1.4865664316006121e+01 -3 -1 0
1417 444 2 -8.2999999999999996e-01 8.5672600513599373e-01 6.9356218887248977e-01 1.9659842285972566e+01 3 -1 0
2838 444 1 4.1499999999999998e-01 5.4830221712889204e-01 7.2720245587462253e+00 2.3382042060312994e+01 1 1 0
33 444 1 4.1499999999999998e-01 5.5514317864467845e-02 7.6411895491376685e+00 1.7891446445902652e+01 -3 -1 0
303 444 1 4.1499999999999998e-01 5.0179426553273920e+00 4.7863550046315773e+00 1.7462413845514355e+01 -2 1 0
301 444 2 -8.2999999999999996e-01 5.2323772645976749e+00 4.5993598549140531e+00 1.6548475588425216e+01 -2 1 0
2274 444 1 4.1499999999999998e-01 4.9955767163682436e+00 4.1971739865210411e+00 2.2567598207930764e+01 0 2 0
2363 444 1 4.1499999999999998e-01 3.5976411305012110e+00 5.3037182949870081e+00 1.9043026100461240e+01 3 1 0
1486 444 2 -8.2999999999999996e-01 2.9534441945864769e+00 1.7791537954148917e+00 2.1288560246509427e+01 -1 5 0
2425 444 2 -8.2999999999999996e-01 3.7107836017831182e+00 1.5428809231230156e+00 1.6785688733724911e+01 0 2 0
1650 444 1 4.1499999999999998e-01 1.8977461886728524e+00 3.7070694243240490e+00 1.7936908102163883e+01 1 -2 0
1487 444 1 4.1499999999999998e-01 3.4775122168561561e+00 9.7821939905578004e-01 2.1279083858523968e+01 -1 5 0
1649 444 1 4.1499999999999998e-01 2.3531883264881874e+00 2.7475320543266295e+00 1.6858133030966400e+01 1 -2 0
2364 444 1 4.1499999999999998e-01 4.7781438952951918e+00 5.5119497592415065e+00 1.9967660136157118e+01 3 1 0
257 444 1 4.1499999999999998e-01 4.0108714181462162e+00 5.9340582334834657e+00 2.2005004014527398e+01 2 0 0
2981 444 1 4.1499999999999998e-01 5.1076552503468395e+00 7.5563522514669872e+00 1.9503568115692566e+01 0 -3 0
258 444 1 4.1499999999999998e-01 4.4240823772575837e+00 7.3809302013693259e+00 2.2171478667265941e+01 2 0 0
2086 444 2 -8.2999999999999996e-01 1.8465642591823432e+00 3.6048431108520957e+00 1.9664507284436290e+01 3 -1 0
2087 444 1 4.1499999999999998e-01 9.5818668808555729e-01 3.6575664220508237e+00 2.0016982591230214e+01 3 -1 0
2088 444 1 4.1499999999999998e-01 2.3013247887404584e+00 2.9989548830075754e+00 2.0249592892633558e+01 3 -1 0
256 444 2 -8.2999999999999996e-01 3.6873473744750829e+00 6.8296611367199400e+00 2.1907742200556608e+01 2 0 0
2427 444 1 4.1499999999999998e-01 3.5091005710443444e+00 8.3265017388930174e-01 1.7394891886917002e+01 0 2 0
1648 444 2 -8.2999999999999996e-01 1.7108999307848605e+00 3.4338811176122648e+00 1.7038749712993521e+01 1 -2 0
2566 444 2 -8.2999999999999996e-01 8.5869722388946246e-01 4.0737349884149543e+00 2.3336026261651334e+01 1 -1 0
2568 444 1 4.1499999999999998e-01 1.3621318341075626e+00 4.8878139839839054e+00 2.3343837678624887e+01 1 -1 0
2567 444 1 4.1499999999999998e-01 1.4803578636888755e+00 3.4099811026803653e+00 2.3037361177350412e+01 1 -1 0
1488 444 1 4.1499999999999998e-01 3.0118115846769071e+00 2.0934782056734704e+00 2.2190794356525082e+01 -1 5 0
2638 444 2 -8.2999999999999996e-01 2.8644934872095686e+00 2.0741574926797206e+00 2.4083839229772828e+01 5 0 0
2836 444 2 -8.2999999999999996e-01 1.4865751146849140e+00 7.3106460547345824e+00 2.3567475681126982e+01 1 1 0
2272 444 2 -8.2999999999999996e-01 4.9599515381609258e+00 4.3613490853543571e+00 2.1625255596421809e+01 0 2 0
1418 444 1 4.1499999999999998e-01 1.5691731275220016e+00 1.1522799084385553e+00 2.0105071855978739e+01 3 -1 0
2837 444 1 4.1499999999999998e-01 1.8982099025584329e+00 7.3898859889256174e+00 2.2706946523116230e+01 1 1 0
2273 444 1 4.1499999999999998e-01 5.2378882184643913e+00 3.5363785927411686e+00 2.1227251316185594e+01 0 2 0
2362 444 2 -8.2999999999999996e-01 4.4577076543979466e+00 5.7211910394136813e+00 1.9090294102617566e+01 3 1 0
1419 444 1 4.1499999999999998e-01 1.2026753361971900e+00 5.0142300439951004e-01 1.8788272714971470e+01 3 -1 0
1539 444 1 4.1499999999999998e-01 3.1376288466683309e+00 9.7606066702307070e-01 2.9473331267344030e+01 0 2 0
2651 444 1 4.1499999999999998e-01 4.8461133239952332e+00 6.5560360069164494e+00 2.8762263763011166e+01 1 3 0
133 444 2 -8.2999999999999996e-01 3.3146140411328417e+00 7.9805639252541347e+00 2.5423732571278791e+01 1 -3 0
464 444 1 4.1499999999999998e-01 5.1821783292073453e+00 3.8605649222886322e+00 3.2108844813515049e+01 0 4 0
1537 444 2 -8.2999999999999996e-01 3.6570134465350734e+00 1.5337964976340113e+00 3.0052471467506567e+01 0 2 0
472 444 2 -8.2999999999999996e-01 3.3720765836055921e+00 5.5282034999621554e-01 2.6425357146966427e+01 -1 -3 0
1269 444 1 4.1499999999999998e-01 2.9103898420206225e+00 7.5405687409641100e+00 2.8235117585969917e+01 1 1 0
2185 444 2 -8.2999999999999996e-01 2.3367444104912521e-01 3.0298692617431087e+00 2.5736576649510905e+01 -3 3 0
2650 444 2 -8.2999999999999996e-01 5.1626611496832773e+00 5.7301492722640903e+00 2.9128243371825853e+01 1 3 0
135 444 1 4.1499999999999998e-01 4.0504864337372197e+00 7.5592629209932385e+00 2.4979627731959862e+01 1 -3 0
2318 444 1 4.1499999999999998e-01 4.8738051773539546e+00 1.3474775436857203e+00 3.1108753153925484e+01 3 3 0
2186 444 1 4.1499999999999998e-01 1.4707063697278056e-01 3.5808806654324612e+00 2.4958682947266723e+01 -3 3 0
2016 444 1 4.1499999999999998e-01 3.9507230269719655e+00 4.7539682780307437e+00 2.8693954039689785e+01 -2 -2 0
728 444 1 4.1499999999999998e-01 3.2351437579782294e+00 7.8031665985502272e+00 3.1343693346959025e+01 -1 1 0
2640 444 1 4.1499999999999998e-01 3.0472257705554897e+00 2.9661643607627419e+00 2.4379075572184277e+01 5 0 0
2433 444 1 4.1499999999999998e-01 3.5732408374568441e+00 4.3348646129780972e+00 2.6295407391908718e+01 6 -1 0
561 444 1 4.1499999999999998e-01 7.0793472283957393e-01 7.8957624430070279e+00 2.5413165742695149e+01 -3 1 0
134 444 1 4.1499999999999998e-01 2.5654898936394397e+00 7.8231370337822632e+00 2.4849048616362406e+01 1 -3 0
1215 444 1 4.1499999999999998e-01 7.5972837029413987e-01 7.5067934980849902e+00 2.9185452232901032e+01 0 -1 0
474 444 1 4.1499999999999998e-01 2.7480198494215728e+00 6.3764268614837416e-01 2.7146183634946652e+01 -1 -3 0
640 444 2 -8.2999999999999996e-01 1.8514651634135117e+00 5.6067736434734687e+00 3.0939661521552438e+01 1 4 0
2915 444 1 4.1499999999999998e-01 8.9725178111390191e-01 3.3284780834641498e-01 2.8872973795488896e+01 0 -1 0
1267 444 2 -8.2999999999999996e-01 3.7708031482827034e+00 7.8861505357881461e+00 2.8472802142634094e+01 1 1 0
2014 444 2 -8.2999999999999996e-01 3.0910647173508670e+00 4.3338873506701487e+00 2.8721366600485460e+01 -2 -2 0
1454 444 1 4.1499999999999998e-01 1.5172777881988513e+00 4.3295727151086725e+00 2.8100943155621728e+01 5 4 0
2639 444 1 4.1499999999999998e-01 3.0607798042463426e+00 1.5251581464985113e+00 2.4842985629834722e+01 5 0 0
1453 444 2 -8.2999999999999996e-01 7.1624255942985560e-01 4.7317768598132695e+00 2.7765076736801955e+01 5 4 0
1213 444 2 -8.2999999999999996e-01 1.1692456459750871e+00 7.2800521173624864e+00 2.8350517733326331e+01 0 -1 0
2431 444 2 -8.2999999999999996e-01 3.5716115991999504e+00 4.4867665547331583e+00 2.5350338543130164e+01 6 -1 0
1455 444 1 4.1499999999999998e-01 5.9952941453392694e-01 4.3456071705284334e+00 2.6897042843676257e+01 5 4 0
2319 444 1 4.1499999999999998e-01 5.0520741481844409e+00 7.5362931377998110e-01 3.2489861251927522e+01 3 3 0
2015 444 1 4.1499999999999998e-01 2.7296001320247067e+00 4.5822758422762000e+00 2.9572177025183944e+01 -2 -2 0
1214 444 1 4.1499999999999998e-01 1.0491445023476000e+00 6.3335431571200038e+00 2.8273521911791462e+01 0 -1 0
641 444 1 4.1499999999999998e-01 1.0583864915340384e+00 6.1055053983271792e+00 3.0743384414688471e+01 1 4 0
642 444 1 4.1499999999999998e-01 1.8728290907192218e+00 5.5562356523343608e+00 3.1895287682815123e+01 1 4 0
2432 444 1 4.1499999999999998e-01 4.4355946804876982e+00 4.8547151523751149e+00 2.5164922315818568e+01 6 -1 0
1538 444 1 4.1499999999999998e-01 3.5373513145600968e+00 2.4177124396564755e+00 2.9705187764040417e+01 0 2 0
3084 444 4 0.0000000000000000e+00 3.4729999999999999e+00 9.7467000000000006e+00 0.0000000000000000e+00 0 0 0
3085 444 4 -7.4069999999999997e-02 3.4745400000000002e+00 9.7581399999999991e+00 3.5988500000000001e+00 0 0 0
3089 444 4 0.0000000000000000e+00 1.6560500000000000e+00 9.7467000000000006e+00 1.8169999999999999e+00 0 0 0
3095 444 4 0.0000000000000000e+00 5.2898399999999999e+00 9.7467000000000006e+00 1.8169999999999999e+00 0 0 0
3108 444 4 -7.4069999999999997e-02 1.6729300000000000e+00 1.1564600000000000e+01 3.5998700000000001e+00 0 0 0
3109 444 4 0.0000000000000000e+00 3.4729999999999999e+00 1.1563549999999999e+01 1.8169999999999999e+00 0 0 0
3110 444 4 0.0000000000000000e+00 1.6560500000000000e+00 1.3380500000000000e+01 1.8169999999999999e+00 0 0 0
3113 444 4 0.0000000000000000e+00 5.2898399999999999e+00 1.1563549999999999e+01 0.0000000000000000e+00 0 0 0
3114 444 4 -7.4069999999999997e-02 5.2731399999999997e+00 1.1559490000000000e+01 3.5986500000000001e+00 0 0 0
3116 444 4 0.0000000000000000e+00 5.2898399999999999e+00 1.3380500000000000e+01 1.8169999999999999e+00 0 0 0
3119 444 4 0.0000000000000000e+00 1.6560500000000000e+00 1.1563549999999999e+01 0.0000000000000000e+00 0 0 0
3125 444 4 0.0000000000000000e+00 1.6560500000000000e+00 1.5197450000000000e+01 0.0000000000000000e+00 0 0 0
3126 444 4 -7.4069999999999997e-02 1.6572600000000000e+00 1.5201390000000000e+01 3.5711200000000001e+00 0 0 0
3127 444 4 0.0000000000000000e+00 3.4729999999999999e+00 1.5197450000000000e+01 1.8169999999999999e+00 0 0 0
3133 444 4 -7.4069999999999997e-02 3.4698699999999998e+00 1.3367229999999999e+01 3.5980400000000001e+00 0 0 0
3134 444 4 0.0000000000000000e+00 3.4729999999999999e+00 1.3380500000000000e+01 0.0000000000000000e+00 0 0 0
3135 444 4 0.0000000000000000e+00 5.2898399999999999e+00 1.5197450000000000e+01 0.0000000000000000e+00 0 0 0
3160 444 4 -7.4069999999999997e-02 5.2601800000000001e+00 1.5175160000000000e+01 3.5808300000000002e+00 0 0 0
403 444 2 -8.2999999999999996e-01 4.9154513641606390e-01 8.8747351861142949e+00 6.6819938909943852e+00 -2 -1 0
2952 444 1 4.1499999999999998e-01 3.9283472511397677e+00 1.4702097408270816e+01 7.1309981774941038e+00 -1 -2 0
2948 444 2 -8.2999999999999996e-01 3.0911358985587829e+00 1.4268066729657885e+01 7.2950951754567708e+00 -1 -2 0
2949 444 1 4.1499999999999998e-01 2.5862159283487816e+00 1.4410028482838189e+01 6.4943861967206225e+00 -1 -2 0
405 444 1 4.1499999999999998e-01 1.4331322370569028e+00 8.7476767298050788e+00 6.5657977119759936e+00 -2 -1 0
1728 444 1 4.1499999999999998e-01 3.0570098020732095e+00 1.0980609652937389e+01 6.6497163865136892e+00 5 0 0
281 444 1 4.1499999999999998e-01 3.3993707318464006e+00 8.9360796760846810e+00 6.6518038308583023e+00 0 0 0
1726 444 2 -8.2999999999999996e-01 3.7196945074087981e+00 1.0834938977350633e+01 7.3248910400024263e+00 5 0 0
2381 444 1 4.1499999999999998e-01 6.2624303890762811e-01 1.3379028324602695e+01 8.0439134895312208e+00 6 -2 0
1727 444 1 4.1499999999999998e-01 4.3517861158883653e+00 1.1542346217304313e+01 7.1973488393502310e+00 5 0 0
404 444 1 4.1499999999999998e-01 3.5772715777709940e-01 9.8130873006232644e+00 6.5485033249934412e+00 -2 -1 0
344 444 1 4.1499999999999998e-01 5.3794661253358855e+00 9.5094319251698849e+00 7.2492176653541414e+00 1 4 0
19 444 2 -8.2999999999999996e-01 5.1893989352565644e+00 1.5788694556843057e+01 7.2096073737918029e+00 -6 2 0
1789 444 2 -8.2999999999999996e-01 4.7544148554161758e+00 9.2388522005899052e+00 1.3681389372632861e+01 -1 -3 0
2918 444 1 4.1499999999999998e-01 3.1707695950543315e+00 1.0531421573650427e+01 8.9082314701831748e+00 3 -2 0
2919 444 1 4.1499999999999998e-01 2.5028675855785383e+00 9.3629592542907663e+00 9.6014110372237003e+00 3 -2 0
2946 444 1 4.1499999999999998e-01 4.1827455092334338e+00 8.4247538848685295e+00 1.2028347144143169e+01 6 -2 0
86 444 1 4.1499999999999998e-01 1.0647561110174075e+00 1.0704487867609600e+01 9.9118041558181940e+00 -4 -5 0
2917 444 2 -8.2999999999999996e-01 2.8663017472636083e+00 1.0233180287252612e+01 9.7653098450532649e+00 3 -2 0
1160 444 1 4.1499999999999998e-01 3.5881075110394627e+00 1.1533868232179827e+01 1.0862673548277703e+01 6 2 0
1159 444 2 -8.2999999999999996e-01 4.2358070966026524e+00 1.2008019744205122e+01 1.1384111405753693e+01 6 2 0
1161 444 1 4.1499999999999998e-01 4.9686269189213181e+00 1.1398100639976279e+01 1.1468997173642856e+01 6 2 0
2669 444 1 4.1499999999999998e-01 3.3809755899583425e+00 1.2069595157368209e+01 1.3030366396802501e+01 -4 -1 0
2668 444 2 -8.2999999999999996e-01 2.6988040800363828e+00 1.2186409087086384e+01 1.3691599479200836e+01 -4 -1 0
2670 444 1 4.1499999999999998e-01 1.9599281326165165e+00 1.2559444443618172e+01 1.3210830162431604e+01 -4 -1 0
964 444 2 -8.2999999999999996e-01 4.3282918009049354e-01 1.1439370797059240e+01 1.5906540487707462e+01 2 2 0
158 444 1 4.1499999999999998e-01 8.3173995999673178e-01 1.3723702296081241e+01 1.0394212622631251e+01 -4 2 0
1733 444 1 4.1499999999999998e-01 3.5497489956583728e+00 1.3146708415825048e+01 1.5098982032256304e+01 1 -4 0
2954 444 1 4.1499999999999998e-01 4.2512677130595851e+00 1.3915845571359155e+01 9.3023957566113946e+00 4 4 0
2228 444 1 4.1499999999999998e-01 4.8171744492210467e-01 8.5890784642101732e+00 1.3358790604500722e+01 -1 1 0
1732 444 2 -8.2999999999999996e-01 4.3764559906144145e+00 1.3212710908689672e+01 1.5576926644821672e+01 1 -4 0
2382 444 1 4.1499999999999998e-01 2.1104973216608380e+00 1.3371491593112655e+01 8.3419530836805436e+00 6 -2 0
2380 444 2 -8.2999999999999996e-01 1.2680932819701227e+00 1.3072944693028719e+01 8.6846731594420721e+00 6 -2 0
646 444 2 -8.2999999999999996e-01 5.2104413048110008e+00 8.1917825960055897e+00 1.6031479203064169e+01 -1 4 0
157 444 2 -8.2999999999999996e-01 8.5333426789629652e-01 1.4243786741068227e+01 1.1197504349565678e+01 -4 2 0
1048 444 2 -8.2999999999999996e-01 2.0192119607862975e+00 1.6141142609971013e+01 1.4355949848734758e+01 1 -1 0
1210 444 2 -8.2999999999999996e-01 2.2300643477268896e+00 9.5059008559063081e+00 1.5127879626925049e+01 5 0 0
2953 444 2 -8.2999999999999996e-01 4.8146188814088360e+00 1.4647563088971268e+01 9.5543020241363923e+00 4 4 0
1898 444 1 4.1499999999999998e-01 2.6503196799949600e+00 1.4801750683511154e+01 1.1776039031614511e+01 4 1 0
1212 444 1 4.1499999999999998e-01 3.0468936195912772e+00 9.7398391144258216e+00 1.4687090514978262e+01 5 0 0
2145 444 1 4.1499999999999998e-01 4.7328381968230984e+00 1.5838964533285447e+01 1.2349177891936908e+01 -1 4 0
1211 444 1 4.1499999999999998e-01 1.7720515693820875e+00 1.0338598389834859e+01 1.5242212602829657e+01 5 0 0
965 444 1 4.1499999999999998e-01 4.2453396993243403e-01 1.1879980129489436e+01 1.5056818592574691e+01 2 2 0
1050 444 1 4.1499999999999998e-01 1.9144925996855062e+00 1.5634654742991504e+01 1.3550508467621853e+01 1 -1 0
85 444 2 -8.2999999999999996e-01 2.0211645292161559e-01 1.0623652594548656e+01 9.5049245485811067e+00 -4 -5 0
6 444 3 1.0000000000000000e+00 4.4310190025057619e+00 1.5902373631056815e+01 1.5113460915716047e+01 0 2 0
159 444 1 4.1499999999999998e-01 5.8437636300492191e-01 1.5120480839404175e+01 1.0923094263486432e+01 -4 2 0
87 444 1 4.1499999999999998e-01 3.5085087935465337e-01 1.0834412514116485e+01 8.5831378712960991e+00 -4 -5 0
1899 444 1 4.1499999999999998e-01 3.7063054723747961e+00 1.3717139714441535e+01 1.1755834260295392e+01 4 1 0
1305 444 1 4.1499999999999998e-01 7.2109004900684226e-02 1.3298953500510221e+01 1.2505604598859643e+01 1 0 0
1897 444 2 -8.2999999999999996e-01 3.4574964848279075e+00 1.4523016914824176e+01 1.2208479685414677e+01 4 1 0
1734 444 1 4.1499999999999998e-01 5.0352325192948895e+00 1.2888443893077511e+01 1.4962845007207344e+01 1 -4 0
1790 444 1 4.1499999999999998e-01 4.9526002635458930e+00 9.0845004824799194e+00 1.4605040647299695e+01 -1 -3 0
1791 444 1 4.1499999999999998e-01 5.3057411505489060e+00 9.9827432645657126e+00 1.3438701160882982e+01 -1 -3 0
2955 444 1 4.1499999999999998e-01 4.8431333475348159e+00 1.5206809290519466e+01 8.7779887150473819e+00 4 4 0
2496 444 1 4.1499999999999998e-01 3.3597115570408440e+00 1.2824167804663258e+01 2.1136610876173766e+01 -5 -1 0
1291 444 2 -8.2999999999999996e-01 4.5626487907872599e+00 1.3809450561417044e+01 2.4006607771376249e+01 2 -1 0
380 444 1 4.1499999999999998e-01 4.2215680810992238e+00 1.6115273959182350e+01 1.8468851328733500e+01 -1 -1 0
2980 444 2 -8.2999999999999996e-01 4.8747855020037543e+00 8.4474775173533931e+00 1.9242993194892744e+01 0 -3 0
1292 444 1 4.1499999999999998e-01 3.6539305492180296e+00 1.3515617998454672e+01 2.3942378061830116e+01 2 -1 0
2495 444 1 4.1499999999999998e-01 2.5014080431863608e+00 1.3679898254123694e+01 2.2043768841749998e+01 -5 -1 0
1106 444 1 4.1499999999999998e-01 5.1267689070182838e+00 1.4772093737465024e+01 2.0118871533530211e+01 -4 0 0
379 444 2 -8.2999999999999996e-01 3.6439319349077768e+00 1.5989082478783596e+01 1.7716093120576403e+01 -1 -1 0
2673 444 1 4.1499999999999998e-01 1.8485318599696332e+00 1.2609463429904499e+01 1.8473900301010595e+01 1 -3 0
2671 444 2 -8.2999999999999996e-01 1.0896880208956088e+00 1.3154097342983814e+01 1.8264706614330194e+01 1 -3 0
1010 444 1 4.1499999999999998e-01 1.1930779618523193e+00 1.4609403582902189e+01 2.3108358634610404e+01 -1 -4 0
2357 444 1 4.1499999999999998e-01 2.2752335945032929e+00 1.0520471362003612e+01 2.3828200463130347e+01 3 -1 0
1541 444 1 4.1499999999999998e-01 2.8672172559823079e+00 9.9693099052756278e+00 1.9590661697014408e+01 3 -4 0
1540 444 2 -8.2999999999999996e-01 3.0331076043538938e+00 1.0906579758739809e+01 1.9691846816522606e+01 3 -4 0
648 444 1 4.1499999999999998e-01 4.7847084254140206e+00 8.6085282503946381e+00 1.6780683154243853e+01 -1 4 0
1843 444 2 -8.2999999999999996e-01 4.4219150486420933e+00 1.0851398249513322e+01 1.7091688570127516e+01 2 1 0
299 444 1 4.1499999999999998e-01 2.0315232906546852e+00 1.6278272028660258e+01 1.9945836629052149e+01 3 1 0
298 444 2 -8.2999999999999996e-01 1.8817521213844557e+00 1.5351840460632797e+01 1.9757355796892611e+01 3 1 0
2672 444 1 4.1499999999999998e-01 1.2691990205642452e+00 1.3990756160800276e+01 1.8693671440585870e+01 1 -3 0
1880 444 1 4.1499999999999998e-01 1.5138647907747160e+00 9.8597440315869633e+00 2.1565335728303030e+01 -1 -2 0
1879 444 2 -8.2999999999999996e-01 5.7723382696851877e-01 9.8344287370085546e+00 2.1369595990810566e+01 -1 -2 0
300 444 1 4.1499999999999998e-01 2.1079797083658183e+00 1.4901721798872199e+01 2.0571263715373817e+01 3 1 0
1792 444 2 -8.2999999999999996e-01 3.1635853708734665e+00 9.9740920778099884e+00 2.2209718062602423e+01 -1 -4 0
1793 444 1 4.1499999999999998e-01 3.9929355179784514e+00 9.5266646845599663e+00 2.2377703903412286e+01 -1 -4 0
2494 444 2 -8.2999999999999996e-01 3.2227126410150011e+00 1.3729235749615091e+01 2.1416459270925721e+01 -5 -1 0
1542 444 1 4.1499999999999998e-01 3.6648412299329505e+00 1.1114186032441207e+01 1.9003337514854820e+01 3 -4 0
1794 444 1 4.1499999999999998e-01 3.2759925955304108e+00 1.0371688715299983e+01 2.1346286104663218e+01 -1 -4 0
1009 444 2 -8.2999999999999996e-01 1.2283865725654139e+00 1.3653616880013574e+01 2.3070188986000701e+01 -1 -4 0
1011 444 1 4.1499999999999998e-01 1.1787070128298895e+00 1.3374923462952680e+01 2.3984570582094005e+01 -1 -4 0
1845 444 1 4.1499999999999998e-01 5.0829534596093024e+00 1.1475176365373361e+01 1.7391957476541588e+01 2 1 0
1902 444 1 4.1499999999999998e-01 2.5047625528573181e-01 9.3067144501956136e+00 1.9725058046210421e+01 -7 3 0
562 444 2 -8.2999999999999996e-01 1.4611582899395328e+00 1.6207603253949536e+01 2.2640721433174090e+01 4 1 0
1613 444 1 4.1499999999999998e-01 2.4487875273519877e+00 8.7067697317918551e+00 1.6942019965066141e+01 -4 0 0
1881 444 1 4.1499999999999998e-01 2.8217860485154583e-01 1.0736866731824662e+01 2.1491170669470026e+01 -1 -2 0
1612 444 2 -8.2999999999999996e-01 2.5237872934865924e+00 8.3939805518584993e+00 1.7843557745886162e+01 -4 0 0
966 444 1 4.1499999999999998e-01 3.6150545525856148e-01 1.2148637109771611e+01 1.6545356883710088e+01 2 2 0
1614 444 1 4.1499999999999998e-01 1.6324840735794615e+00 8.4421697140086920e+00 1.8189229112825657e+01 -4 0 0
2982 444 1 4.1499999999999998e-01 4.0896052669992820e+00 8.3429344644338901e+00 1.8705597094266835e+01 0 -3 0
1844 444 1 4.1499999999999998e-01 3.9692303029915452e+00 1.1305095913302427e+01 1.6380726343853876e+01 2 1 0
381 444 1 4.1499999999999998e-01 2.9057407904351606e+00 1.5487111212330010e+01 1.8061536606165024e+01 -1 -1 0
1319 444 1 4.1499999999999998e-01 9.7872103000718955e-02 9.4478583185817815e+00 3.2461473512173988e+01 2 1 0
2664 444 1 4.1499999999999998e-01 3.4205404867467446e+00 1.1507550458132620e+01 3.2390371006733112e+01 2 -3 0
559 444 2 -8.2999999999999996e-01 3.7921873241329157e-01 8.5271085868707335e+00 2.6053149827275455e+01 -3 1 0
729 444 1 4.1499999999999998e-01 3.6743246591037462e+00 8.6075390165906267e+00 3.0138703556448167e+01 -1 1 0
107 444 1 4.1499999999999998e-01 1.6518103958935333e+00 1.5884259864418691e+01 2.8945464236074308e+01 -1 -4 0
14 444 1 4.1499999999999998e-01 4.4385459658029758e+00 1.5421842917363211e+01 2.4401121454735073e+01 0 1 0
371 444 1 4.1499999999999998e-01 3.9643900914882719e+00 1.1863068772946285e+01 2.8581069654101952e+01 -4 -1 0
636 444 1 4.1499999999999998e-01 5.4605038220816227e-01 1.4960808660558504e+01 3.2037147703479434e+01 0 0 0
809 444 1 4.1499999999999998e-01 4.8119720579643070e+00 1.5630213282299097e+01 2.6442115289351360e+01 2 1 0
1873 444 2 -8.2999999999999996e-01 1.6375937405710013e+00 1.2679476998030221e+01 2.6119167399067457e+01 1 1 0