LAMMPS data file via write_data, version 11 Aug 2017, timestep = 1000000

3570 atoms
13 atom types
2024 bonds
5 bond types
1018 angles
5 angle types
12 dihedrals
4 dihedral types
9 impropers
1 improper types

0.0000000000000000e+00 3.2704500000000003e+01 xlo xhi
0.0000000000000000e+00 3.2704500000000003e+01 ylo yhi
0.0000000000000000e+00 8.0000000000000000e+01 zlo zhi

Masses

1 1.0079
2 15.9994
3 39.0983
4 63.546
5 12.011
6 15.9994
7 12.011
8 1.0079
9 12.011
10 15.9994
11 15.9994
12 15.9994
13 1.0079

Bond Coeffs # harmonic

1 450 0.9572
2 570 1.229
3 450 1.364
4 570 1.229
5 553 0.945

Angle Coeffs # harmonic

1 100 123.32
2 85 124
3 55 104.52
4 35 113
5 100 123.32

Dihedral Coeffs # charmm

1 0.922 1 180 0
2 3.741 2 0 0
3 0.922 1 0 0
4 3.741 2 180 0

Improper Coeffs # umbrella

1 21 0

Atoms # full

3049 444 4 -7.4069999999999997e-02 1.6691100000000001e+00 6.6463000000000005e-01 3.5976300000000001e+00 0 0 0
3051 444 4 0.0000000000000000e+00 1.6560500000000000e+00 2.4790000000000001e+00 1.8169999999999999e+00 0 0 0
3060 444 4 0.0000000000000000e+00 1.6560500000000000e+00 6.6205000000000003e-01 0.0000000000000000e+00 0 0 0
2093 444 1 4.1499999999999998e-01 1.7892932105331643e+00 2.3842600017608770e+00 1.4596702346945104e+01 0 3 0
1840 444 2 -8.2999999999999996e-01 1.8809947453178379e+00 1.0567592040351099e+00 1.5979342831390859e+01 3 -3 0
2092 444 2 -8.2999999999999996e-01 1.6983353160012968e+00 2.9845269956114899e+00 1.3856676162739330e+01 0 3 0
2660 444 1 4.1499999999999998e-01 1.4595651680783412e+00 4.0381431921875111e+00 9.6474745436317804e+00 1 -2 0
2021 444 1 4.1499999999999998e-01 2.5165777556372010e-01 3.0270557399677891e+00 1.2793860979939646e+01 -4 -5 0
2924 444 1 4.1499999999999998e-01 1.4137727801168232e+00 8.1729124399579689e-02 8.5538453146718805e+00 -2 1 0
1400 444 1 4.1499999999999998e-01 5.6499857854372415e-01 3.4165986861859112e+00 1.8747355528661124e+01 0 0 0
1399 444 2 -8.2999999999999996e-01 7.1393752609355254e-01 2.4716357359519128e+00 1.8780434977729108e+01 0 0 0
1401 444 1 4.1499999999999998e-01 1.6319003414924114e+00 2.3645010817460386e+00 1.8531238271800099e+01 0 0 0
1842 444 1 4.1499999999999998e-01 1.8049980773870233e+00 1.4012550089596038e-01 1.6244369823336164e+01 3 -3 0
3066 444 4 0.0000000000000000e+00 1.6560500000000000e+00 4.2959500000000004e+00 0.0000000000000000e+00 0 0 0
3067 444 4 -7.4069999999999997e-02 1.6695199999999999e+00 4.2794800000000004e+00 3.5817800000000002e+00 0 0 0
3069 444 4 0.0000000000000000e+00 1.6560500000000000e+00 6.1128000000000000e+00 1.8169999999999999e+00 0 0 0
3086 444 4 0.0000000000000000e+00 1.6560500000000000e+00 7.9297500000000003e+00 0.0000000000000000e+00 0 0 0
3087 444 4 -7.4069999999999997e-02 1.6804100000000000e+00 7.9550000000000001e+00 3.5855399999999999e+00 0 0 0
5 444 3 1.0000000000000000e+00 1.7816875415460629e+00 7.6257806546837523e+00 8.7758873767029968e+00 0 -1 0
1381 444 2 -8.2999999999999996e-01 1.4209941794690086e+00 5.9290919447350774e+00 1.3912870098403527e+01 4 1 0
2120 444 1 4.1499999999999998e-01 1.3903202227611553e+00 7.5024182689036651e+00 1.3106029357789959e+01 2 -3 0
1382 444 1 4.1499999999999998e-01 1.4630413468597889e+00 5.9995468926664195e+00 1.4866547193406021e+01 4 1 0
2904 444 1 4.1499999999999998e-01 5.5534335293832848e-01 5.1428241829994192e+00 1.6770929127785003e+01 -2 0 0
360 444 1 4.1499999999999998e-01 3.8438336124583933e-01 6.3988730417280228e+00 1.9678022800593684e+01 0 -4 0
1293 444 1 4.1499999999999998e-01 1.9530574122112037e+00 6.9205766921515544e+00 1.6629745421665827e+01 2 -1 0
358 444 2 -8.2999999999999996e-01 4.5581408289336034e-01 5.4907588614608898e+00 1.9972061369043914e+01 0 -4 0
1291 444 2 -8.2999999999999996e-01 2.0057088644868384e+00 5.9848512894526502e+00 1.6435123673867665e+01 2 -1 0
3089 444 4 0.0000000000000000e+00 1.6560500000000000e+00 9.7467000000000006e+00 1.8169999999999999e+00 0 0 0
3107 444 4 -7.4069999999999997e-02 1.6691100000000001e+00 1.1566129999999999e+01 3.5976300000000001e+00 0 0 0
3118 444 4 0.0000000000000000e+00 1.6560500000000000e+00 1.1563549999999999e+01 0.0000000000000000e+00 0 0 0
1551 444 1 4.1499999999999998e-01 2.0334139788883321e+00 9.3631293894335208e+00 6.1554207268650014e+00 -4 3 0
764 444 1 4.1499999999999998e-01 5.3540297155915340e-01 1.1716555632409149e+01 6.6137074235093758e+00 5 -5 0
1344 444 1 4.1499999999999998e-01 4.4989987540583443e-01 1.0662446592948092e+01 8.8480085370325732e+00 0 3 0
1342 444 2 -8.2999999999999996e-01 2.6778131294000868e-01 9.7428849702657683e+00 9.0415831470595940e+00 0 3 0
2606 444 1 4.1499999999999998e-01 1.3733072602029681e-01 9.4188205645974641e+00 1.1900264769399236e+01 -2 3 0
2121 444 1 4.1499999999999998e-01 1.5695246174857611e+00 8.8976830869987182e+00 1.3665508252019718e+01 2 -3 0
2119 444 2 -8.2999999999999996e-01 1.3689488249770656e+00 8.4263781167446616e+00 1.2856884349422534e+01 2 -3 0
2372 444 1 4.1499999999999998e-01 6.1507626709873098e-01 9.4605388149800351e+00 1.8838302073424007e+01 1 6 0
2301 444 1 4.1499999999999998e-01 1.7847104169414465e+00 1.0023423940190650e+01 1.6482682641450115e+01 -1 -4 0
2371 444 2 -8.2999999999999996e-01 8.0094607328406642e-01 1.0189512297118885e+01 1.8246455886734832e+01 1 6 0
2373 444 1 4.1499999999999998e-01 4.4992465826084495e-02 1.0769855378990760e+01 1.8335719046164844e+01 1 6 0
3109 444 4 0.0000000000000000e+00 1.6560500000000000e+00 1.3380500000000000e+01 1.8169999999999999e+00 0 0 0
3124 444 4 0.0000000000000000e+00 1.6560500000000000e+00 1.5197450000000000e+01 0.0000000000000000e+00 0 0 0
3125 444 4 -7.4069999999999997e-02 1.6695199999999999e+00 1.5180980000000000e+01 3.5817899999999998e+00 0 0 0
1916 444 1 4.1499999999999998e-01 1.4474520773173662e+00 1.4090833877130375e+01 6.3769485775340957e+00 0 4 0
1915 444 2 -8.2999999999999996e-01 8.1009630652604203e-01 1.4701202980106043e+01 6.7477042110804373e+00 0 4 0
1917 444 1 4.1499999999999998e-01 1.0062218015613682e+00 1.5538134090207881e+01 6.3266182021991293e+00 0 4 0
2150 444 1 4.1499999999999998e-01 1.5775831625907084e+00 1.5033926251455574e+01 1.4053160118675818e+01 0 -1 0
2914 444 2 -8.2999999999999996e-01 6.6320783350667892e-02 1.3675003546422509e+01 1.1351026664547771e+01 3 3 0
2818 444 2 -8.2999999999999996e-01 3.1829409410732040e-01 1.5389387374042171e+01 9.2417969183646047e+00 1 0 0
2151 444 1 4.1499999999999998e-01 1.0118235158311808e+00 1.3633696637696866e+01 1.4158840218907869e+01 0 -1 0
2149 444 2 -8.2999999999999996e-01 1.5610324167434571e+00 1.4188376555860387e+01 1.3604825275850162e+01 0 -1 0
2518 444 2 -8.2999999999999996e-01 1.9219531861658901e+00 1.2830611227833868e+01 9.0400219491106171e+00 3 -3 0
2520 444 1 4.1499999999999998e-01 1.4787324879014772e+00 1.2907419273514115e+01 8.1951030042376214e+00 3 -3 0
2820 444 1 4.1499999999999998e-01 4.3920085987432433e-01 1.5089869154908722e+01 8.3407407380306928e+00 1 0 0
2916 444 1 4.1499999999999998e-01 6.6808394530537907e-01 1.3968993711014337e+01 1.2034900415801184e+01 3 3 0
2519 444 1 4.1499999999999998e-01 1.2641602774947369e+00 1.2450675865755935e+01 9.6224218757734494e+00 3 -3 0
2915 444 1 4.1499999999999998e-01 2.2701955069272126e-01 1.4269432258355861e+01 1.0618180578592117e+01 3 3 0
1384 444 2 -8.2999999999999996e-01 1.0181416515243744e-01 1.3932463621816254e+01 1.8415958139083845e+01 3 -4 0
1386 444 1 4.1499999999999998e-01 7.6767788771898893e-01 1.3988429015267279e+01 1.9101323153891133e+01 3 -4 0
1367 444 1 4.1499999999999998e-01 6.7259554565408733e-02 1.3682353926512841e+01 1.6786490102577766e+01 -5 -3 0
3127 444 4 0.0000000000000000e+00 1.6560500000000000e+00 1.7014299999999999e+01 1.8169999999999999e+00 0 0 0
3144 444 4 0.0000000000000000e+00 1.6560500000000000e+00 1.8831250000000001e+01 0.0000000000000000e+00 0 0 0
3145 444 4 -7.4069999999999997e-02 1.6804100000000000e+00 1.8856500000000000e+01 3.5855399999999999e+00 0 0 0
241 444 2 -8.2999999999999996e-01 1.9686978060004126e+00 1.7811454318016619e+01 7.1772905731348100e+00 1 0 0
242 444 1 4.1499999999999998e-01 1.7726042922341987e+00 1.8705818066144506e+01 7.4563834037832972e+00 1 0 0
243 444 1 4.1499999999999998e-01 1.5896542675332168e+00 1.7744997798462510e+01 6.3008537519023031e+00 1 0 0
2831 444 1 4.1499999999999998e-01 1.7598588997835327e+00 1.7913401940013067e+01 1.0524180975127340e+01 -3 -3 0
718 444 2 -8.2999999999999996e-01 7.5065567868055116e-01 1.7405544148891934e+01 1.4657019680201127e+01 6 -4 0
2830 444 2 -8.2999999999999996e-01 1.9235039563241785e+00 1.7081130345504835e+01 1.0967775587917288e+01 -3 -3 0
2832 444 1 4.1499999999999998e-01 1.1146077097530878e+00 1.6901489627666297e+01 1.1446991659153158e+01 -3 -3 0
2360 444 1 4.1499999999999998e-01 2.0747047989836262e-01 2.0143067006055272e+01 1.3058702568813343e+01 0 0 0
720 444 1 4.1499999999999998e-01 6.2527773065388803e-01 1.8332806546025331e+01 1.4455283265327669e+01 6 -4 0
2813 444 1 4.1499999999999998e-01 1.9970501548339539e+00 1.6950514954840862e+01 1.5961675061903454e+01 1 2 0
1608 444 1 4.1499999999999998e-01 1.2159107427036802e+00 1.7292276337508465e+01 1.9613066470189235e+01 0 6 0
1606 444 2 -8.2999999999999996e-01 7.3994624049279367e-01 1.6870660307964702e+01 1.8897573776879710e+01 0 6 0
691 444 2 -8.2999999999999996e-01 3.7193547151957834e-01 1.9872774986596575e+01 1.7267689453304669e+01 -10 2 0
1607 444 1 4.1499999999999998e-01 1.3665502989115874e+00 1.6845677690987653e+01 1.8174402949686058e+01 0 6 0
693 444 1 4.1499999999999998e-01 4.6420069506283307e-01 2.0365354980200500e+01 1.8083216231861098e+01 -10 2 0
3147 444 4 0.0000000000000000e+00 1.6560500000000000e+00 2.0648199999999999e+01 1.8169999999999999e+00 0 0 0
3165 444 4 -7.4069999999999997e-02 1.6691100000000001e+00 2.2467630000000000e+01 3.5976300000000001e+00 0 0 0
3167 444 4 0.0000000000000000e+00 1.6560500000000000e+00 2.4282000000000000e+01 1.8169999999999999e+00 0 0 0
3176 444 4 0.0000000000000000e+00 1.6560500000000000e+00 2.2465050000000002e+01 0.0000000000000000e+00 0 0 0
40 444 2 -8.2999999999999996e-01 1.5581863410363288e+00 2.1360751999220682e+01 7.1594238298682660e+00 -1 0 0
42 444 1 4.1499999999999998e-01 9.8110393885154568e-01 2.1179688028118573e+01 6.4175185674235564e+00 -1 0 0
879 444 1 4.1499999999999998e-01 4.1427168563388544e-01 2.2244146776342127e+01 8.7676377371413423e+00 2 -2 0
1 444 3 1.0000000000000000e+00 1.3813378392821554e+00 2.3565751543935480e+01 1.0921073941314585e+01 1 1 0
573 444 1 4.1499999999999998e-01 1.8503188643217827e-01 2.2589055103050384e+01 1.5862238670127287e+01 -2 1 0
758 444 1 4.1499999999999998e-01 1.5654976971289665e+00 2.0671703822428871e+01 1.0883953000503487e+01 -2 -3 0
757 444 2 -8.2999999999999996e-01 1.2356945496926017e+00 2.0718265119000257e+01 1.1781334746867429e+01 -2 -3 0
759 444 1 4.1499999999999998e-01 1.9748512250820802e+00 2.1048850457350575e+01 1.2291818580443202e+01 -2 -3 0
899 444 1 4.1499999999999998e-01 1.8535186856654005e+00 2.4404012842066624e+01 1.3982614879074220e+01 -6 -3 0
683 444 1 4.1499999999999998e-01 6.0925626794513077e-01 2.2538877520157012e+01 1.9188744973345408e+01 1 0 0
682 444 2 -8.2999999999999996e-01 3.8681891124992651e-01 2.1610349847388289e+01 1.9256493776643723e+01 1 0 0
571 444 2 -8.2999999999999996e-01 9.5512426424918773e-01 2.2336456934459939e+01 1.6371536547759796e+01 -2 1 0
572 444 1 4.1499999999999998e-01 7.4667355068356656e-01 2.1463741881850112e+01 1.6704927266327381e+01 -2 1 0
3182 444 4 0.0000000000000000e+00 1.6560500000000000e+00 2.6098949999999999e+01 0.0000000000000000e+00 0 0 0
3183 444 4 -7.4069999999999997e-02 1.6695199999999999e+00 2.6082480000000000e+01 3.5817899999999998e+00 0 0 0
3185 444 4 0.0000000000000000e+00 1.6560500000000000e+00 2.7915800000000001e+01 1.8169999999999999e+00 0 0 0
3021 444 1 4.1499999999999998e-01 6.9595337376769884e-01 2.5056236378324122e+01 6.8895637174206090e+00 2 -4 0
2784 444 1 4.1499999999999998e-01 1.5164340653536863e+00 2.7181312465610745e+01 6.9017635108289435e+00 0 -2 0
3019 444 2 -8.2999999999999996e-01 1.3837151688856761e-01 2.5813982277722104e+01 7.0660727382551274e+00 2 -4 0
2783 444 1 4.1499999999999998e-01 1.5133243516511090e+00 2.8528100389866211e+01 6.2103536161605071e+00 0 -2 0
2782 444 2 -8.2999999999999996e-01 2.0346465471985105e+00 2.7979135540697996e+01 6.7960946700036748e+00 0 -2 0
351 444 1 4.1499999999999998e-01 3.9969600087509605e-02 2.6711803471809588e+01 8.7855415906907979e+00 -2 -1 0
900 444 1 4.1499999999999998e-01 7.2131466667510780e-01 2.5301291111792743e+01 1.3529955027415618e+01 -6 -3 0
898 444 2 -8.2999999999999996e-01 1.4918742958428735e+00 2.4833818899138684e+01 1.3207558816730229e+01 -6 -3 0
170 444 1 4.1499999999999998e-01 1.5495225916633151e+00 2.6688552517087071e+01 1.8543751227617943e+01 -2 -1 0
74 444 1 4.1499999999999998e-01 2.2067681132976499e-01 2.5759866053588798e+01 1.6168276904516670e+01 2 0 0
169 444 2 -8.2999999999999996e-01 1.5046273159564498e+00 2.6709682540330483e+01 1.7587837945037780e+01 -2 -1 0
3202 444 4 0.0000000000000000e+00 1.6560500000000000e+00 2.9732749999999999e+01 0.0000000000000000e+00 0 0 0
3203 444 4 -7.4069999999999997e-02 1.6804100000000000e+00 2.9757999999999999e+01 3.5855399999999999e+00 0 0 0
3205 444 4 0.0000000000000000e+00 1.6560500000000000e+00 3.1549700000000001e+01 1.8169999999999999e+00 0 0 0
379 444 2 -8.2999999999999996e-01 1.2493387116060191e+00 3.1033930549824976e+01 6.8357907233464763e+00 -1 -1 0
380 444 1 4.1499999999999998e-01 1.2583147747108501e+00 3.0588037173308081e+01 5.9888371768637851e+00 -1 -1 0
381 444 1 4.1499999999999998e-01 1.9683709829095997e+00 3.1663575898471660e+01 6.7831489596566428e+00 -1 -1 0
508 444 2 -8.2999999999999996e-01 3.1167267608503285e-01 3.0033506064331803e+01 9.2222089860179093e+00 5 -5 0
2125 444 2 -8.2999999999999996e-01 1.4719367320005203e+00 3.1751845783915311e+01 1.3356283564943968e+01 1 0 0
2126 444 1 4.1499999999999998e-01 1.5307697281298740e+00 3.1090743156490081e+01 1.4046003587925787e+01 1 0 0
456 444 1 4.1499999999999998e-01 6.3911933003535237e-01 3.0512095896853086e+01 1.5739597100538534e+01 4 -1 0
454 444 2 -8.2999999999999996e-01 1.2738908556316901e+00 2.9952597608442986e+01 1.5292094432177930e+01 4 -1 0
1952 444 1 4.1499999999999998e-01 1.3847311212612712e+00 2.9122109170963039e+01 1.0792366743657817e+01 -4 -4 0
2323 444 2 -8.2999999999999996e-01 3.5127846732058526e-01 2.8785170205954639e+01 1.3174716181053688e+01 1 -3 0
2324 444 1 4.1499999999999998e-01 9.4281053417902660e-01 2.8965520523334867e+01 1.3905329176405715e+01 1 -3 0
2127 444 1 4.1499999999999998e-01 7.8783361255130302e-01 3.2350714184750082e+01 1.3655601543312839e+01 1 0 0
509 444 1 4.1499999999999998e-01 7.6968720592915907e-01 3.0136712692174360e+01 8.3880605980262857e+00 5 -5 0
455 444 1 4.1499999999999998e-01 1.9258805255000555e+00 2.9746086680490318e+01 1.5961791687106658e+01 4 -1 0
2325 444 1 4.1499999999999998e-01 8.9941361545198484e-01 2.8872718681372717e+01 1.2394898988464369e+01 1 -3 0
1093 444 2 -8.2999999999999996e-01 1.0524424960921121e-01 3.1227784111734454e+01 1.7151916323744928e+01 -2 3 0
1094 444 1 4.1499999999999998e-01 5.0049764112162087e-01 3.1036479746876221e+01 1.8002451661118716e+01 -2 3 0
2912 444 1 4.1499999999999998e-01 1.5945176572267892e+00 2.9539083341848499e+01 1.9441156127895304e+01 3 1 0
2911 444 2 -8.2999999999999996e-01 1.7583879484625315e+00 3.0345490420737324e+01 1.8952192111091620e+01 3 1 0
3050 444 4 0.0000000000000000e+00 3.4729999999999999e+00 6.6205000000000003e-01 1.8169999999999999e+00 0 0 0
3074 444 4 -7.4069999999999997e-02 3.4743800000000000e+00 2.4652799999999999e+00 3.5961099999999999e+00 0 0 0
3075 444 4 0.0000000000000000e+00 3.4729999999999999e+00 2.4790000000000001e+00 0.0000000000000000e+00 0 0 0
2385 444 1 4.1499999999999998e-01 2.2294901517553560e+00 3.5213317133849324e+00 7.3781874775257812e+00 3 3 0
2383 444 2 -8.2999999999999996e-01 2.8013451465221588e+00 2.9460899647426877e+00 6.8699443767737547e+00 3 3 0
2240 444 1 4.1499999999999998e-01 3.5470376425619419e+00 8.1019469264095811e-01 6.6863310473256883e+00 2 6 0
2384 444 1 4.1499999999999998e-01 2.2067130583268799e+00 2.3182267867939328e+00 6.4595391116016074e+00 3 3 0
2661 444 1 4.1499999999999998e-01 2.5225983662529812e+00 2.9609047818552825e+00 9.6850657032513254e+00 1 -2 0
547 444 2 -8.2999999999999996e-01 3.8914268418983329e+00 2.0221035997109049e+00 1.1623105842111132e+01 0 -4 0
2094 444 1 4.1499999999999998e-01 2.5965279368913499e+00 3.1502481693718494e+00 1.3570286560938756e+01 0 3 0
2659 444 2 -8.2999999999999996e-01 2.4005906837153606e+00 3.8992487519644983e+00 9.5406459174330021e+00 1 -2 0
1841 444 1 4.1499999999999998e-01 2.8174805371207072e+00 1.1864409814431338e+00 1.5829642406521598e+01 3 -3 0
2925 444 1 4.1499999999999998e-01 2.9007864134066446e+00 1.3147334910932371e-01 8.2741808381225415e+00 -2 1 0
2923 444 2 -8.2999999999999996e-01 2.2217044281541103e+00 5.1492529464183123e-01 8.8291987113248194e+00 -2 1 0
824 444 1 4.1499999999999998e-01 3.0091245463480782e+00 3.6345188502132939e+00 1.9846473592982456e+01 -1 2 0
2170 444 2 -8.2999999999999996e-01 3.3506121172207872e+00 2.3426012062674042e+00 1.8651967995328974e+01 0 0 0
2172 444 1 4.1499999999999998e-01 3.2630276576897810e+00 1.4046267336669616e+00 1.8482366333127946e+01 0 0 0
3064 444 4 0.0000000000000000e+00 3.4729999999999999e+00 6.1128000000000000e+00 0.0000000000000000e+00 0 0 0
3065 444 4 -7.4069999999999997e-02 3.4734500000000001e+00 6.1134500000000003e+00 3.5849799999999998e+00 0 0 0
3068 444 4 0.0000000000000000e+00 3.4729999999999999e+00 4.2959500000000004e+00 1.8169999999999999e+00 0 0 0
3088 444 4 0.0000000000000000e+00 3.4729999999999999e+00 7.9297500000000003e+00 1.8169999999999999e+00 0 0 0
2337 444 1 4.1499999999999998e-01 2.9779385540310477e+00 5.1397992647437256e+00 6.6812208981327403e+00 4 -4 0
2335 444 2 -8.2999999999999996e-01 2.2115726542997303e+00 5.7057660469138067e+00 6.7739403022429521e+00 4 -4 0
2336 444 1 4.1499999999999998e-01 2.0658695835868817e+00 6.0581845727327854e+00 5.8959861941880805e+00 4 -4 0
1383 444 1 4.1499999999999998e-01 2.1325322722586044e+00 5.3308106351236102e+00 1.3684824338469110e+01 4 1 0
2736 444 1 4.1499999999999998e-01 3.4619406356007443e+00 5.2979152637243407e+00 9.4004944885003336e+00 3 0 0
2734 444 2 -8.2999999999999996e-01 3.9924748085979656e+00 6.0869934470393154e+00 9.5105894617936180e+00 3 0 0
1292 444 1 4.1499999999999998e-01 2.7227241504862714e+00 5.6657272783647130e+00 1.6983102453001784e+01 2 -1 0
3084 444 4 0.0000000000000000e+00 3.4729999999999999e+00 9.7467000000000006e+00 0.0000000000000000e+00 0 0 0
3085 444 4 -7.4069999999999997e-02 3.4771000000000001e+00 9.7598400000000005e+00 3.5976100000000000e+00 0 0 0
3108 444 4 0.0000000000000000e+00 3.4729999999999999e+00 1.1563549999999999e+01 1.8169999999999999e+00 0 0 0
1550 444 1 4.1499999999999998e-01 3.4362168280323484e+00 8.9361952597469063e+00 6.5319395920688539e+00 -4 3 0
1549 444 2 -8.2999999999999996e-01 2.6491992668361979e+00 9.3484834722927275e+00 6.8881047685005115e+00 -4 3 0
2299 444 2 -8.2999999999999996e-01 2.3607090627583842e+00 9.8154450759699312e+00 1.5747018306303598e+01 -1 -4 0
2300 444 1 4.1499999999999998e-01 3.0968423489617578e+00 1.0420144599922528e+01 1.5840174124214554e+01 -1 -4 0
2084 444 1 4.1499999999999998e-01 3.8203884402004937e+00 9.4679879675536505e+00 1.1261218179291221e+01 -7 2 0
2083 444 2 -8.2999999999999996e-01 3.2919380364141331e+00 8.7580629564508410e+00 1.0896555939799493e+01 -7 2 0
2085 444 1 4.1499999999999998e-01 2.6038309668795856e+00 8.6131180094302753e+00 1.1545964500918240e+01 -7 2 0
2532 444 1 4.1499999999999998e-01 2.5645557753047550e+00 9.9170491169566475e+00 1.8866590395695866e+01 1 2 0
2530 444 2 -8.2999999999999996e-01 3.2457810901557589e+00 9.2765199001999186e+00 1.9071252922368256e+01 1 2 0
2531 444 1 4.1499999999999998e-01 3.6130977400565447e+00 9.0367036046604063e+00 1.8220489149588133e+01 1 2 0
3126 444 4 0.0000000000000000e+00 3.4729999999999999e+00 1.5197450000000000e+01 1.8169999999999999e+00 0 0 0
3132 444 4 -7.4069999999999997e-02 3.4743800000000000e+00 1.3366780000000000e+01 3.5961099999999999e+00 0 0 0
3133 444 4 0.0000000000000000e+00 3.4729999999999999e+00 1.3380500000000000e+01 0.0000000000000000e+00 0 0 0
301 444 2 -8.2999999999999996e-01 3.5177416494811764e+00 1.4380300897191399e+01 6.6253327375544933e+00 -5 4 0
303 444 1 4.1499999999999998e-01 3.8250775611396821e+00 1.4865082310316090e+01 5.8593277946433195e+00 -5 4 0
3033 444 3 1.0000000000000000e+00 3.2864033533908628e+00 1.5238562330113355e+01 8.9621238120499260e+00 2 1 0
2133 444 1 4.1499999999999998e-01 3.9889747041095309e+00 1.3724027226670135e+01 1.1976765906485465e+01 7 -1 0
2132 444 1 4.1499999999999998e-01 3.2726449857550937e+00 1.2956647384568035e+01 1.3067588934746311e+01 7 -1 0
2766 444 1 4.1499999999999998e-01 3.2376590145703403e+00 1.6051906516290149e+01 1.1371190210339353e+01 0 3 0
2764 444 2 -8.2999999999999996e-01 3.9921108306526478e+00 1.5585042183331639e+01 1.1730455897593064e+01 0 3 0
2814 444 1 4.1499999999999998e-01 3.2041859743939174e+00 1.6291512464590610e+01 1.6594474885676213e+01 1 2 0
398 444 1 4.1499999999999998e-01 3.8601034065916160e+00 1.2424664866370529e+01 1.9472112428906581e+01 1 -1 0
3122 444 4 0.0000000000000000e+00 3.4729999999999999e+00 1.7014299999999999e+01 0.0000000000000000e+00 0 0 0
3123 444 4 -7.4069999999999997e-02 3.4734500000000001e+00 1.7014949999999999e+01 3.5849799999999998e+00 0 0 0
3146 444 4 0.0000000000000000e+00 3.4729999999999999e+00 1.8831250000000001e+01 1.8169999999999999e+00 0 0 0
1988 444 1 4.1499999999999998e-01 3.8377608683831466e+00 1.7438935133191389e+01 7.0081734038971257e+00 3 3 0
896 444 1 4.1499999999999998e-01 4.0870882685983343e+00 1.9385804138457640e+01 1.4198630066645729e+01 -3 -1 0
285 444 1 4.1499999999999998e-01 2.6997629963693264e+00 1.8471408741615683e+01 1.7439536274773619e+01 2 -1 0
939 444 1 4.1499999999999998e-01 3.5844428002718933e+00 2.0125965540898001e+01 1.9748755699162711e+01 3 -5 0
2812 444 2 -8.2999999999999996e-01 2.5324114088633993e+00 1.6954184770473688e+01 1.6755153153295243e+01 1 2 0
283 444 2 -8.2999999999999996e-01 2.9235155681887988e+00 1.9323722410722482e+01 1.7813338436286248e+01 2 -1 0
284 444 1 4.1499999999999998e-01 2.0894875259521180e+00 1.9790923274101711e+01 1.7861839963543563e+01 2 -1 0
3142 444 4 0.0000000000000000e+00 3.4729999999999999e+00 2.0648199999999999e+01 0.0000000000000000e+00 0 0 0
3143 444 4 -7.4069999999999997e-02 3.4771000000000001e+00 2.0661339999999999e+01 3.5976100000000000e+00 0 0 0
3166 444 4 0.0000000000000000e+00 3.4729999999999999e+00 2.2465050000000002e+01 1.8169999999999999e+00 0 0 0
3190 444 4 -7.4069999999999997e-02 3.4743800000000000e+00 2.4268280000000001e+01 3.5961099999999999e+00 0 0 0
3191 444 4 0.0000000000000000e+00 3.4729999999999999e+00 2.4282000000000000e+01 0.0000000000000000e+00 0 0 0
669 444 1 4.1499999999999998e-01 2.1471053381804777e+00 2.3256869595049562e+01 6.3790015550866590e+00 1 0 0
41 444 1 4.1499999999999998e-01 2.4343172281230281e+00 2.1144325832666706e+01 6.8403843758072433e+00 -1 0 0
667 444 2 -8.2999999999999996e-01 2.0527961433666548e+00 2.4052538394068279e+01 6.9026892433193918e+00 1 0 0
2273 444 1 4.1499999999999998e-01 2.6894424885414865e+00 2.1863268978301836e+01 8.6880896176634561e+00 2 0 0
2143 444 2 -8.2999999999999996e-01 3.2785802299304563e+00 2.1967036435990199e+01 1.3376386510332020e+01 -1 -4 0
1104 444 1 4.1499999999999998e-01 2.2571389863050211e+00 2.3545204738185642e+01 1.5826221701737715e+01 -5 2 0
2274 444 1 4.1499999999999998e-01 3.7421250767442102e+00 2.1402029227381494e+01 9.6734891643255576e+00 2 0 0
2144 444 1 4.1499999999999998e-01 3.9251032549193194e+00 2.2346534747153598e+01 1.2781221531864420e+01 -1 -4 0
1102 444 2 -8.2999999999999996e-01 2.8164076269997813e+00 2.4079420693954987e+01 1.5262250327452412e+01 -5 2 0
2272 444 2 -8.2999999999999996e-01 2.8547258020045199e+00 2.1757556776442705e+01 9.6249664473153160e+00 2 0 0
1103 444 1 4.1499999999999998e-01 3.5936639710211558e+00 2.4255455135249012e+01 1.5792454248315744e+01 -5 2 0
2145 444 1 4.1499999999999998e-01 3.2985151624648870e+00 2.2535327497333654e+01 1.4146373542805405e+01 -1 -4 0
938 444 1 4.1499999999999998e-01 3.6707229364936529e+00 2.1631289396303359e+01 1.9884590335708861e+01 3 -5 0
3180 444 4 0.0000000000000000e+00 3.4729999999999999e+00 2.7915800000000001e+01 0.0000000000000000e+00 0 0 0
3181 444 4 -7.4069999999999997e-02 3.4734500000000001e+00 2.7916450000000001e+01 3.5849799999999998e+00 0 0 0
3184 444 4 0.0000000000000000e+00 3.4729999999999999e+00 2.6098949999999999e+01 1.8169999999999999e+00 0 0 0
2096 444 1 4.1499999999999998e-01 3.3363825936605305e+00 2.6859307029376964e+01 6.6130893038602734e+00 4 -6 0
668 444 1 4.1499999999999998e-01 2.7485652496960409e+00 2.4630209882722951e+01 6.5889487263860724e+00 1 0 0
2095 444 2 -8.2999999999999996e-01 3.8559783036167192e+00 2.6070775293796789e+01 6.7695212159562477e+00 4 -6 0
620 444 1 4.1499999999999998e-01 2.5044325336317526e+00 2.5261561628553888e+01 8.6004908769969308e+00 1 0 0
621 444 1 4.1499999999999998e-01 3.2186384204520766e+00 2.5985077227465009e+01 9.7222441687689578e+00 1 0 0
701 444 1 4.1499999999999998e-01 3.0363223767429957e+00 2.6338110117771787e+01 1.2898227790692074e+01 3 0 0
1033 444 2 -8.2999999999999996e-01 3.5523524326021172e+00 2.7830992122152459e+01 9.3708237359362485e+00 -4 3 0
702 444 1 4.1499999999999998e-01 3.1315799365619292e+00 2.7836124677522495e+01 1.2701317726389789e+01 3 0 0
1037 444 1 4.1499999999999998e-01 3.2621255339668402e+00 2.8243771957766214e+01 8.5574274943477810e+00 -4 3 0
619 444 2 -8.2999999999999996e-01 2.9305202956778431e+00 2.5115368467611788e+01 9.4450671312581136e+00 1 0 0
700 444 2 -8.2999999999999996e-01 3.5828555147845162e+00 2.7095753102195715e+01 1.3106820742009655e+01 3 0 0
1953 444 1 4.1499999999999998e-01 2.7336820834366584e+00 2.8451694565481592e+01 1.0641467271448516e+01 -4 -4 0
411 444 1 4.1499999999999998e-01 3.7113441441740544e+00 2.8408723958191892e+01 1.7450702120113050e+01 -2 -2 0
171 444 1 4.1499999999999998e-01 2.3689697181630924e+00 2.7016274823707160e+01 1.7313710803238500e+01 -2 -1 0
3200 444 4 0.0000000000000000e+00 3.4729999999999999e+00 3.1549700000000001e+01 0.0000000000000000e+00 0 0 0
3201 444 4 -7.4069999999999997e-02 3.4771000000000001e+00 3.1562840000000001e+01 3.5976100000000000e+00 0 0 0
3204 444 4 0.0000000000000000e+00 3.4729999999999999e+00 2.9732749999999999e+01 1.8169999999999999e+00 0 0 0
2367 444 1 4.1499999999999998e-01 3.2751124699186605e+00 2.9133828372457351e+01 6.7820813868687297e+00 -3 0 0
2365 444 2 -8.2999999999999996e-01 3.8085290686605826e+00 2.9868306707974032e+01 7.0857930115965022e+00 -3 0 0
4 444 3 1.0000000000000000e+00 2.7102389153208746e+00 3.2172261277437926e+01 1.1196410943924571e+01 1 0 0
1951 444 2 -8.2999999999999996e-01 2.1699195456105693e+00 2.8881951789823944e+01 1.1284337689937120e+01 -4 -4 0
409 444 2 -8.2999999999999996e-01 3.2714452370788480e+00 2.9155762718129484e+01 1.7044926520981157e+01 -2 -2 0
2913 444 1 4.1499999999999998e-01 2.1061334702834098e+00 3.0049582222488766e+01 1.8110917345613061e+01 3 1 0
2617 444 2 -8.2999999999999996e-01 3.4318497783561916e+00 3.2319348218644251e+01 1.8294828710258848e+01 3 -8 0
2618 444 1 4.1499999999999998e-01 2.7859438106138916e+00 3.1691178327746769e+01 1.8618001216088111e+01 3 -8 0
410 444 1 4.1499999999999998e-01 3.9820459412487210e+00 2.9747786253040253e+01 1.6798377380449569e+01 -2 -2 0
3054 444 4 0.0000000000000000e+00 5.2898399999999999e+00 6.6205000000000003e-01 0.0000000000000000e+00 0 0 0
3055 444 4 -7.4069999999999997e-02 5.2768199999999998e+00 6.6220999999999997e-01 3.5959200000000000e+00 0 0 0
3057 444 4 0.0000000000000000e+00 5.2898399999999999e+00 2.4790000000000001e+00 1.8169999999999999e+00 0 0 0
2810 444 1 4.1499999999999998e-01 5.4333021925164262e+00 2.7016921624839769e+00 5.8117060292449265e+00 -3 -1 0
2809 444 2 -8.2999999999999996e-01 5.3883685435718824e+00 2.9115762934282756e+00 6.7445304814743077e+00 -3 -1 0
2239 444 2 -8.2999999999999996e-01 4.1068467603974241e+00 1.3282254437993066e-01 7.0658210677694688e+00 2 6 0
2811 444 1 4.1499999999999998e-01 4.4850093572088641e+00 2.7139395149283341e+00 6.9917424166950131e+00 -3 -1 0
102 444 1 4.1499999999999998e-01 6.0304987406741537e+00 6.1274223655556481e-01 9.3129168302733252e+00 -3 -2 0
1280 444 1 4.1499999999999998e-01 5.0696918205864687e+00 2.1070830561707159e+00 1.5284325278435725e+01 2 5 0
101 444 1 4.1499999999999998e-01 4.9235347614900844e+00 1.3803645645098148e+00 8.6220608759080637e+00 -3 -2 0
100 444 2 -8.2999999999999996e-01 5.3860324770667773e+00 1.3057064438827082e+00 9.4567789339259267e+00 -3 -2 0
548 444 1 4.1499999999999998e-01 4.3500252227284202e+00 2.1557642864772619e+00 1.0793615208344033e+01 0 -4 0
1281 444 1 4.1499999999999998e-01 4.9158797953604001e+00 9.6766985348728574e-01 1.4299452364925687e+01 2 5 0
1279 444 2 -8.2999999999999996e-01 4.4171937905279410e+00 1.5215720124685974e+00 1.4900066160670189e+01 2 5 0
549 444 1 4.1499999999999998e-01 4.1977301340765107e+00 2.7345617310286405e+00 1.2184188886010139e+01 0 -4 0
1207 444 2 -8.2999999999999996e-01 6.0691711873668428e+00 2.7530038726232320e+00 1.7357576085375616e+01 0 2 0
2171 444 1 4.1499999999999998e-01 4.1602375256972719e+00 2.5924317380972770e+00 1.8206633058590437e+01 0 0 0
3076 444 4 0.0000000000000000e+00 5.2898399999999999e+00 4.2959500000000004e+00 0.0000000000000000e+00 0 0 0
3077 444 4 0.0000000000000000e+00 5.2898399999999999e+00 6.1128000000000000e+00 1.8169999999999999e+00 0 0 0
3092 444 4 0.0000000000000000e+00 5.2898399999999999e+00 7.9297500000000003e+00 0.0000000000000000e+00 0 0 0
3093 444 4 -7.4069999999999997e-02 5.2813299999999996e+00 7.9340099999999998e+00 3.5765199999999999e+00 0 0 0
3101 444 4 -7.4069999999999997e-02 5.2732000000000001e+00 4.2884799999999998e+00 3.5694300000000001e+00 0 0 0
736 444 2 -8.2999999999999996e-01 5.3696580235485154e+00 5.6248316071580673e+00 7.1984435189271236e+00 1 2 0
737 444 1 4.1499999999999998e-01 5.2689646738614888e+00 5.8568421734150071e+00 6.2752619847240219e+00 1 2 0