LAMMPS data file via write_data, version 11 Aug 2017, timestep = 1000000

3561 atoms
12 atom types
2024 bonds
5 bond types
1018 angles
5 angle types
12 dihedrals
4 dihedral types
9 impropers
1 improper types

0.0000000000000000e+00 3.2704500000000003e+01 xlo xhi
0.0000000000000000e+00 3.2704500000000003e+01 ylo yhi
0.0000000000000000e+00 8.0000000000000000e+01 zlo zhi

Masses

1 1.0079
2 15.9994
3 39.0983
4 63.546
5 12.011
6 15.9994
7 1.0079
8 12.011
9 15.9994
10 15.9994
11 15.9994
12 1.0079

Bond Coeffs # harmonic

1 450 0.9572
2 570 1.229
3 450 1.364
4 570 1.229
5 553 0.945

Angle Coeffs # harmonic

1 100 123.32
2 85 124
3 55 104.52
4 35 113
5 100 123.32

Dihedral Coeffs # charmm

1 0.922 1 180 0
2 3.741 2 0 0
3 0.922 1 0 0
4 3.741 2 180 0

Improper Coeffs # umbrella

1 21 0

Atoms # full

3049 444 4 -7.4069999999999997e-02 1.6616599999999999e+00 6.6271999999999998e-01 3.5789100000000000e+00 0 0 0
3050 444 4 0.0000000000000000e+00 3.4729999999999999e+00 6.6205000000000003e-01 1.8169999999999999e+00 0 0 0
3051 444 4 0.0000000000000000e+00 1.6560500000000000e+00 2.4790000000000001e+00 1.8169999999999999e+00 0 0 0
3054 444 4 0.0000000000000000e+00 5.2898399999999999e+00 6.6205000000000003e-01 0.0000000000000000e+00 0 0 0
3055 444 4 -7.4069999999999997e-02 5.2849500000000003e+00 6.6459999999999997e-01 3.5787800000000001e+00 0 0 0
3057 444 4 0.0000000000000000e+00 5.2898399999999999e+00 2.4790000000000001e+00 1.8169999999999999e+00 0 0 0
3060 444 4 0.0000000000000000e+00 1.6560500000000000e+00 6.6205000000000003e-01 0.0000000000000000e+00 0 0 0
3064 444 4 0.0000000000000000e+00 3.4729999999999999e+00 6.1128000000000000e+00 0.0000000000000000e+00 0 0 0
3065 444 4 -7.4069999999999997e-02 3.4736400000000001e+00 6.1126100000000001e+00 3.5785300000000002e+00 0 0 0
3066 444 4 0.0000000000000000e+00 1.6560500000000000e+00 4.2959500000000004e+00 0.0000000000000000e+00 0 0 0
3067 444 4 -7.4069999999999997e-02 1.6598999999999999e+00 4.2963500000000003e+00 3.5730900000000001e+00 0 0 0
3068 444 4 0.0000000000000000e+00 3.4729999999999999e+00 4.2959500000000004e+00 1.8169999999999999e+00 0 0 0
3069 444 4 0.0000000000000000e+00 1.6560500000000000e+00 6.1128000000000000e+00 1.8169999999999999e+00 0 0 0
3074 444 4 -7.4069999999999997e-02 3.4747100000000000e+00 2.4727899999999998e+00 3.5785600000000000e+00 0 0 0
3075 444 4 0.0000000000000000e+00 3.4729999999999999e+00 2.4790000000000001e+00 0.0000000000000000e+00 0 0 0
3076 444 4 0.0000000000000000e+00 5.2898399999999999e+00 4.2959500000000004e+00 0.0000000000000000e+00 0 0 0
3077 444 4 0.0000000000000000e+00 5.2898399999999999e+00 6.1128000000000000e+00 1.8169999999999999e+00 0 0 0
3086 444 4 0.0000000000000000e+00 1.6560500000000000e+00 7.9297500000000003e+00 0.0000000000000000e+00 0 0 0
3087 444 4 -7.4069999999999997e-02 1.6579699999999999e+00 7.9270899999999997e+00 3.5731299999999999e+00 0 0 0
3088 444 4 0.0000000000000000e+00 3.4729999999999999e+00 7.9297500000000003e+00 1.8169999999999999e+00 0 0 0
3092 444 4 0.0000000000000000e+00 5.2898399999999999e+00 7.9297500000000003e+00 0.0000000000000000e+00 0 0 0
3093 444 4 -7.4069999999999997e-02 5.2844800000000003e+00 7.9309799999999999e+00 3.5748600000000001e+00 0 0 0
3101 444 4 -7.4069999999999997e-02 5.2939499999999997e+00 4.3032899999999996e+00 3.5748799999999998e+00 0 0 0
2751 444 1 4.1499999999999998e-01 5.0116995717655568e+00 1.7694822659200407e+00 6.7062964551761493e+00 -5 -2 0
1906 444 2 -8.2999999999999996e-01 1.4866646392706777e+00 6.1261552697902202e+00 7.4015373242596247e+00 3 1 0
1907 444 1 4.1499999999999998e-01 6.8004929777537215e-01 6.3204852310940014e+00 6.9242116779141414e+00 3 1 0
1908 444 1 4.1499999999999998e-01 2.1540738602845035e+00 6.6621706984526163e+00 6.9731854695908746e+00 3 1 0
2686 444 2 -8.2999999999999996e-01 4.2026409976642336e+00 3.5931984412311069e+00 6.8847330587933016e+00 -1 4 0
2688 444 1 4.1499999999999998e-01 4.0051797920129406e+00 4.0183506837493281e+00 6.0501750727186936e+00 -1 4 0
1809 444 1 4.1499999999999998e-01 1.4339646994877082e+00 1.9096941632515747e+00 6.3585981239920573e+00 -2 3 0
1807 444 2 -8.2999999999999996e-01 1.6856354723539453e+00 2.7300937094363968e+00 6.7826724526263167e+00 -2 3 0
2687 444 1 4.1499999999999998e-01 3.3454659444438919e+00 3.4045578579663145e+00 7.2666994645733380e+00 -1 4 0
1808 444 1 4.1499999999999998e-01 1.6541571116380642e+00 3.3817896996591617e+00 6.0822914358932536e+00 -2 3 0
2394 444 1 4.1499999999999998e-01 3.9686953857504790e+00 7.4250937598065665e+00 6.0950340639507816e+00 3 2 0
2392 444 2 -8.2999999999999996e-01 3.4954629741767174e+00 7.9378321849317750e+00 6.7503071698617889e+00 3 2 0
563 444 1 4.1499999999999998e-01 2.5290988874938514e-01 8.0489024359750356e+00 7.9551748697643889e+00 1 -2 0
2749 444 2 -8.2999999999999996e-01 5.4324816846670894e+00 9.1200595564546549e-01 6.7688175439379492e+00 -5 -2 0
1988 444 1 4.1499999999999998e-01 6.9771493220348435e-01 7.2266384818621843e+00 1.3567404938107462e+01 0 -8 0
2810 444 1 4.1499999999999998e-01 5.2889689463821705e+00 2.5666444125028720e+00 1.1427162338904001e+01 2 1 0
1268 444 1 4.1499999999999998e-01 4.6225542152627064e+00 6.1235030866988938e-01 8.5421665761201471e+00 -2 5 0
1269 444 1 4.1499999999999998e-01 4.5502376281378671e+00 6.7977466804807862e-01 1.0052835656830359e+01 -2 5 0
2144 444 1 4.1499999999999998e-01 7.5322312593892882e-02 5.8390532241276434e+00 8.5855571089048457e+00 -2 -3 0
3040 444 9 -8.5999999999999999e-01 4.4200878450192320e+00 1.2175161225876781e+00 1.1746800951364465e+01 -1 0 0
595 444 2 -8.2999999999999996e-01 4.8638347809986513e+00 2.8242044956613288e+00 1.4629747277694984e+01 0 1 0
3042 444 11 -7.8000000000000003e-01 2.3094029000111109e+00 6.1103422836953913e-01 1.1766987531792052e+01 -1 0 0
3039 444 8 1.0800000000000001e+00 3.3134356717742159e+00 1.3276724789022267e+00 1.2163369243986487e+01 -1 0 0
740 444 1 4.1499999999999998e-01 1.5449023811457101e+00 5.7360429526892993e+00 1.1755799231204424e+01 -4 2 0
781 444 2 -8.2999999999999996e-01 6.1151349261459964e-01 2.5377825471412239e+00 1.3775461623717694e+01 3 3 0
783 444 1 4.1499999999999998e-01 1.5304443783652211e+00 2.6182700896446951e+00 1.3519884403765884e+01 3 3 0
2472 444 1 4.1499999999999998e-01 3.1661173177195114e+00 5.6022511170589322e+00 8.6812916534221127e+00 -1 -4 0
102 444 1 4.1499999999999998e-01 3.5881815045255978e+00 7.1291879167230459e+00 1.5429908767977848e+01 0 -2 0
1655 444 1 4.1499999999999998e-01 4.3514086417549791e+00 6.5818492566695310e+00 1.3227922753966043e+01 2 -2 0
1654 444 2 -8.2999999999999996e-01 3.8313930729858403e+00 7.3628774003412794e+00 1.3417160001672732e+01 2 -2 0
2363 444 1 4.1499999999999998e-01 8.5110985729724298e-01 2.9247042533643670e+00 8.3129956726832930e+00 3 3 0
2362 444 2 -8.2999999999999996e-01 5.3749489404164685e-01 2.9169568751339368e+00 9.2173283856405561e+00 3 3 0
741 444 1 4.1499999999999998e-01 1.5201253293842343e+00 7.2381651661035322e+00 1.1568956631400285e+01 -4 2 0
711 444 1 4.1499999999999998e-01 1.6816468219453353e+00 3.8202632247333983e+00 1.0628591041969740e+01 -3 2 0
2471 444 1 4.1499999999999998e-01 3.2168828971856196e+00 5.1150820502431298e+00 1.0113766810689430e+01 -1 -4 0
739 444 2 -8.2999999999999996e-01 9.9055962724653790e-01 6.5057536348306400e+00 1.1884179393735218e+01 -4 2 0
710 444 1 4.1499999999999998e-01 2.6384151412961159e+00 3.6810290379830359e+00 1.1793538895758257e+01 -3 2 0
2470 444 2 -8.2999999999999996e-01 3.7740922566933945e+00 5.4206753623361612e+00 9.3979709968100309e+00 -1 -4 0
709 444 2 -8.2999999999999996e-01 2.1733963159005718e+00 4.3334294898361971e+00 1.1269742125670822e+01 -3 2 0
3041 444 10 -8.0000000000000004e-01 3.0572144201584819e+00 2.4068591591848985e+00 1.2731646861982600e+01 -1 0 0
2189 444 1 4.1499999999999998e-01 2.0015953153103894e+00 1.0151028143841894e+00 1.5738478749970392e+01 3 1 0
1989 444 1 4.1499999999999998e-01 1.4582450997449210e+00 7.8051146114803931e+00 1.4741651505140803e+01 0 -8 0
782 444 1 4.1499999999999998e-01 2.0929679382817062e-01 2.0324888914560302e+00 1.3068968902694769e+01 3 3 0
2190 444 1 4.1499999999999998e-01 3.3872284333206739e+00 1.5959578128882363e+00 1.5552672506884726e+01 3 1 0
1987 444 2 -8.2999999999999996e-01 5.9767101702808267e-01 7.8062714097807868e+00 1.4322553669970050e+01 0 -8 0
1170 444 1 4.1499999999999998e-01 5.4233247700088878e+00 6.0579819034017746e+00 8.9210443227979503e+00 0 -3 0
597 444 1 4.1499999999999998e-01 4.2938431985221834e+00 2.6403604783248418e+00 1.3883058346791287e+01 0 1 0
1656 444 1 4.1499999999999998e-01 3.5077275322171784e+00 7.6484973548221777e+00 1.2562821813786124e+01 2 -2 0
1267 444 2 -8.2999999999999996e-01 4.2897299684656049e+00 1.4091062461758480e-01 9.3058451125031318e+00 -2 5 0
486 444 1 4.1499999999999998e-01 4.9082203830518560e+00 7.9661644612427596e+00 8.9935225244737715e+00 -3 -3 0
2484 444 1 4.1499999999999998e-01 5.3546215897551583e+00 4.4184549923073169e+00 1.3997239598482906e+01 -3 1 0
2420 444 1 4.1499999999999998e-01 3.1541278059471228e-01 8.7597016123363147e-01 1.7454883087725179e+01 2 -2 0
100 444 2 -8.2999999999999996e-01 3.2336511884341155e+00 7.4768692297202506e+00 1.6248235729796825e+01 0 -2 0
607 444 2 -8.2999999999999996e-01 1.3686313195817386e+00 7.1201701535095836e+00 1.8255498175677992e+01 -1 0 0
609 444 1 4.1499999999999998e-01 1.9205806465881559e+00 6.9257161856928331e+00 1.7498020368799828e+01 -1 0 0
2755 444 2 -8.2999999999999996e-01 5.3147366205176700e+00 5.7857742906684031e+00 1.8657152751550807e+01 -1 0 0
972 444 1 4.1499999999999998e-01 2.5842259539135886e+00 3.0731134149582124e+00 1.6837275109033474e+01 -2 6 0
971 444 1 4.1499999999999998e-01 1.7805402253903251e+00 4.3205788452260565e+00 1.6537584446913733e+01 -2 6 0
970 444 2 -8.2999999999999996e-01 2.3748315196264307e+00 3.9402259881173518e+00 1.7184408589577441e+01 -2 6 0
608 444 1 4.1499999999999998e-01 1.4281557876727002e+00 6.3373387300964668e+00 1.8803097221721373e+01 -1 0 0
2477 444 1 4.1499999999999998e-01 2.2487955936210375e+00 1.0861264755503222e+00 1.7872023426935890e+01 3 1 0
2478 444 1 4.1499999999999998e-01 2.4484734428637762e+00 1.6758070037966935e+00 1.9251987716432893e+01 3 1 0
304 444 2 -8.2999999999999996e-01 1.9313446891440087e+00 4.8404670029965393e+00 1.9729867258105944e+01 -2 0 0
2188 444 2 -8.2999999999999996e-01 2.6221813496573874e+00 1.6317811151143677e+00 1.6126825813415898e+01 3 1 0
2476 444 2 -8.2999999999999996e-01 1.7752903239136228e+00 1.3250981890342546e+00 1.8668840808447353e+01 3 1 0
305 444 1 4.1499999999999998e-01 1.8348408571110237e+00 4.4189815399837107e+00 1.8875894812884059e+01 -2 0 0
2756 444 1 4.1499999999999998e-01 5.1765756644523391e+00 4.8667832810391598e+00 1.8886497996006394e+01 -1 0 0
2757 444 1 4.1499999999999998e-01 4.6366645831034088e+00 5.9758865534723968e+00 1.8008841245441172e+01 -1 0 0
3084 444 4 0.0000000000000000e+00 3.4729999999999999e+00 9.7467000000000006e+00 0.0000000000000000e+00 0 0 0
3085 444 4 -7.4069999999999997e-02 3.4733100000000001e+00 9.7573200000000000e+00 3.5790199999999999e+00 0 0 0
3089 444 4 0.0000000000000000e+00 1.6560500000000000e+00 9.7467000000000006e+00 1.8169999999999999e+00 0 0 0
3095 444 4 0.0000000000000000e+00 5.2898399999999999e+00 9.7467000000000006e+00 1.8169999999999999e+00 0 0 0
3106 444 4 -7.4069999999999997e-02 1.6616599999999999e+00 1.1564220000000001e+01 3.5789100000000000e+00 0 0 0
3107 444 4 0.0000000000000000e+00 3.4729999999999999e+00 1.1563549999999999e+01 1.8169999999999999e+00 0 0 0
3108 444 4 0.0000000000000000e+00 1.6560500000000000e+00 1.3380500000000000e+01 1.8169999999999999e+00 0 0 0
3111 444 4 0.0000000000000000e+00 5.2898399999999999e+00 1.1563549999999999e+01 0.0000000000000000e+00 0 0 0
3112 444 4 -7.4069999999999997e-02 5.2849500000000003e+00 1.1566100000000000e+01 3.5787800000000001e+00 0 0 0
3114 444 4 0.0000000000000000e+00 5.2898399999999999e+00 1.3380500000000000e+01 1.8169999999999999e+00 0 0 0
3117 444 4 0.0000000000000000e+00 1.6560500000000000e+00 1.1563549999999999e+01 0.0000000000000000e+00 0 0 0
3123 444 4 0.0000000000000000e+00 1.6560500000000000e+00 1.5197450000000000e+01 0.0000000000000000e+00 0 0 0
3124 444 4 -7.4069999999999997e-02 1.6598999999999999e+00 1.5197850000000001e+01 3.5730900000000001e+00 0 0 0
3125 444 4 0.0000000000000000e+00 3.4729999999999999e+00 1.5197450000000000e+01 1.8169999999999999e+00 0 0 0
3131 444 4 -7.4069999999999997e-02 3.4747100000000000e+00 1.3374290000000000e+01 3.5785600000000000e+00 0 0 0
3132 444 4 0.0000000000000000e+00 3.4729999999999999e+00 1.3380500000000000e+01 0.0000000000000000e+00 0 0 0
3133 444 4 0.0000000000000000e+00 5.2898399999999999e+00 1.5197450000000000e+01 0.0000000000000000e+00 0 0 0
3158 444 4 -7.4069999999999997e-02 5.2939499999999997e+00 1.5204789999999999e+01 3.5748799999999998e+00 0 0 0
1072 444 2 -8.2999999999999996e-01 4.1132172971864893e+00 1.4562873740595156e+01 7.0975727952043641e+00 -4 5 0
847 444 2 -8.2999999999999996e-01 1.8250958365786825e+00 1.3043210872097553e+01 6.8242901425350562e+00 1 0 0
851 444 1 4.1499999999999998e-01 2.0062387516842972e+00 1.2460650534196303e+01 7.5618828421212081e+00 1 0 0
2545 444 2 -8.2999999999999996e-01 3.9220127983228159e+00 1.0663492753818737e+01 7.3971196499979914e+00 -7 0 0
2546 444 1 4.1499999999999998e-01 3.4706774538958967e+00 1.1226256404049987e+01 6.7679728161406301e+00 -7 0 0
1073 444 1 4.1499999999999998e-01 3.6895207796811023e+00 1.3997370139825902e+01 6.4518794038532299e+00 -4 5 0
1074 444 1 4.1499999999999998e-01 3.3968655523254547e+00 1.5070619040215403e+01 7.4787122538078661e+00 -4 5 0
564 444 1 4.1499999999999998e-01 1.3505981940492051e+00 8.5093917870180231e+00 7.0198004993813097e+00 1 -2 0
3028 444 3 1.0000000000000000e+00 3.6873471040745959e-01 1.5443095486555162e+01 6.7462030367090966e+00 4 0 0
850 444 1 4.1499999999999998e-01 1.0669470575186788e+00 1.2652108571866675e+01 6.3901447173121424e+00 1 0 0
562 444 2 -8.2999999999999996e-01 4.9639307775578589e-01 8.7647192499383682e+00 7.3681875327978137e+00 1 -2 0
2393 444 1 4.1499999999999998e-01 3.7223351833496174e+00 8.8467025629387752e+00 6.5535433195408910e+00 3 2 0
2669 444 1 4.1499999999999998e-01 1.5923046194121809e-01 1.0693986567387583e+01 6.6801268208424585e+00 0 4 0
698 444 1 4.1499999999999998e-01 3.4494817992395985e+00 8.5343070939067651e+00 1.0613713250184180e+01 0 -3 0
2547 444 1 4.1499999999999998e-01 4.2793444562186105e+00 1.1268531903251962e+01 8.0470998048185542e+00 -7 0 0
484 444 2 -8.2999999999999996e-01 4.4961744869618681e+00 8.7439242837623876e+00 9.3697401397168836e+00 -3 -3 0
699 444 1 4.1499999999999998e-01 2.0644976363996976e+00 8.8609883869621999e+00 1.1130427341377487e+01 0 -3 0
2297 444 1 4.1499999999999998e-01 3.3770374422437368e+00 1.3075454017406134e+01 1.0690999317707323e+01 0 -4 0
1653 444 1 4.1499999999999998e-01 1.8580388842631406e+00 1.5787591051269247e+01 1.2449956232187821e+01 0 0 0
2184 444 1 4.1499999999999998e-01 3.3223224596516019e+00 9.6964659306062071e+00 1.4716156722407904e+01 1 0 0
2485 444 2 -8.2999999999999996e-01 7.8001228729613004e-01 1.5068113320471626e+01 1.3527987172013402e+01 -2 -2 0
2296 444 2 -8.2999999999999996e-01 2.4542832171001367e+00 1.2877990178280697e+01 1.0530485439604847e+01 0 -4 0
1043 444 1 4.1499999999999998e-01 3.5175068595364238e+00 1.2947819399592486e+01 1.5304003778472802e+01 1 -6 0
2298 444 1 4.1499999999999998e-01 2.0691774238902783e+00 1.2804448685454636e+01 1.1403707991003934e+01 0 -4 0
1209 444 1 4.1499999999999998e-01 1.5003349056447246e+00 1.6090680162599917e+01 1.4929834396646667e+01 2 2 0
1042 444 2 -8.2999999999999996e-01 3.2202089796017872e+00 1.2249942791877215e+01 1.5887797318302958e+01 1 -6 0
2486 444 1 4.1499999999999998e-01 6.2371743966470794e-01 1.4157354256532392e+01 1.3278342612105737e+01 -2 -2 0
2183 444 1 4.1499999999999998e-01 4.0653546541404912e+00 1.0634240797395098e+01 1.5643721840297749e+01 1 0 0
2182 444 2 -8.2999999999999996e-01 4.1471527574978158e+00 9.7943777726599812e+00 1.5191867628691035e+01 1 0 0
626 444 1 4.1499999999999998e-01 5.3649927735271667e+00 1.0477044734733621e+01 1.0462982206691452e+01 1 -2 0
797 444 1 4.1499999999999998e-01 5.6451484883960490e-01 1.2518262967127509e+01 9.6788344026374205e+00 -2 -2 0
1651 444 2 -8.2999999999999996e-01 2.6594521580934960e+00 1.6111735098683940e+01 1.2038982444295382e+01 0 0 0
1417 444 2 -8.2999999999999996e-01 7.8716957957232103e-01 1.2302971057389209e+01 1.2761086310508277e+01 -2 5 0
1516 444 2 -8.2999999999999996e-01 5.2640760068491970e+00 1.3025865640389529e+01 1.3672220367973237e+01 -3 -2 0
1418 444 1 4.1499999999999998e-01 5.7924266564628006e-02 1.2400861019344541e+01 1.2148835581574740e+01 -2 5 0
1419 444 1 4.1499999999999998e-01 4.9175566443414931e-01 1.1636716465081912e+01 1.3381624601081427e+01 -2 5 0
1932 444 1 4.1499999999999998e-01 2.5656073950983777e-01 1.0449536513217032e+01 1.0693941026863964e+01 -1 0 0
2464 444 2 -8.2999999999999996e-01 5.1814918346803216e+00 1.5540788784301862e+01 9.9072975839826025e+00 2 1 0
697 444 2 -8.2999999999999996e-01 2.8069938331740660e+00 8.2741626987976318e+00 1.1273839005903518e+01 0 -3 0
1930 444 2 -8.2999999999999996e-01 4.5514645664512882e-01 9.5271181298109600e+00 1.0855000740745993e+01 -1 0 0
625 444 2 -8.2999999999999996e-01 5.2316415076498464e+00 1.1344763499593711e+01 1.0844445227819994e+01 1 -2 0
2465 444 1 4.1499999999999998e-01 4.5015455608491051e+00 1.5760511930336451e+01 1.0544185993949236e+01 2 1 0
582 444 1 4.1499999999999998e-01 5.0072601862881552e+00 1.3484151172648547e+01 8.4073247834185683e+00 -3 2 0
485 444 1 4.1499999999999998e-01 4.1296920610580869e+00 9.2089381026914783e+00 8.6176198262296992e+00 -3 -3 0
2466 444 1 4.1499999999999998e-01 5.0712575662747019e+00 1.6183985006233097e+01 9.2070269519926544e+00 2 1 0
1518 444 1 4.1499999999999998e-01 5.3283009680844948e+00 1.2524444307261366e+01 1.2859395691321035e+01 -3 -2 0
627 444 1 4.1499999999999998e-01 5.0800203077585531e+00 1.1916903579676974e+01 1.0092182320624881e+01 1 -2 0
1284 444 1 4.1499999999999998e-01 1.9637740850526253e-01 1.3326531465176634e+01 1.5615316320453514e+01 0 -3 0
2487 444 1 4.1499999999999998e-01 3.4943684721467139e-02 1.5547513986639988e+01 1.3165660844145282e+01 -2 -2 0
1652 444 1 4.1499999999999998e-01 3.2315599386074934e+00 1.6336325155616795e+01 1.2772797053571445e+01 0 0 0
1044 444 1 4.1499999999999998e-01 2.2973780349780579e+00 1.2447608195762326e+01 1.6047624179642224e+01 1 -6 0
2725 444 2 -8.2999999999999996e-01 1.0808036571579653e+00 1.5444080146671034e+01 1.7715409238604966e+01 -3 2 0
1282 444 2 -8.2999999999999996e-01 6.6080504289964825e-01 1.3154839256104971e+01 1.6434499340524461e+01 0 -3 0
1283 444 1 4.1499999999999998e-01 9.7498424804155978e-03 1.2733724989051733e+01 1.6995767807426606e+01 0 -3 0
360 444 1 4.1499999999999998e-01 3.9412537877676126e+00 1.2045152468436623e+01 1.7451470509891227e+01 1 -1 0
101 444 1 4.1499999999999998e-01 3.5707868328727081e+00 8.3715171904434609e+00 1.6294900556220025e+01 0 -2 0
358 444 2 -8.2999999999999996e-01 4.3121782704002927e+00 1.1767421832133330e+01 1.8289034659545468e+01 1 -1 0
2680 444 2 -8.2999999999999996e-01 2.9890595585264506e+00 9.4724039760040561e+00 1.9097117591846022e+01 -2 3 0
2682 444 1 4.1499999999999998e-01 2.3318505908513436e+00 8.9329059651224920e+00 1.8657514967022287e+01 -2 3 0
2681 444 1 4.1499999999999998e-01 2.4973097162235267e+00 9.9569938758635086e+00 1.9760131384808595e+01 -2 3 0
359 444 1 4.1499999999999998e-01 3.8614793831462473e+00 1.0947477190186396e+01 1.8491009325755467e+01 1 -1 0
2727 444 1 4.1499999999999998e-01 3.2804394828904532e-01 1.5545751356376368e+01 1.8297859037102075e+01 -3 2 0
2726 444 1 4.1499999999999998e-01 9.6894835643266553e-01 1.4575964451985477e+01 1.7327987594128011e+01 -3 2 0
6 444 1 4.1499999999999998e-01 4.9329340822780834e+00 1.6142798806756140e+01 1.8335701071676059e+01 -2 7 0
494 444 1 4.1499999999999998e-01 4.5584174666121546e+00 1.3068947721457560e+01 1.9621604252975121e+01 0 -3 0
495 444 1 4.1499999999999998e-01 5.4309269986687916e+00 1.4306018101053994e+01 1.9638316187911322e+01 0 -3 0
3121 444 4 0.0000000000000000e+00 3.4729999999999999e+00 1.7014299999999999e+01 0.0000000000000000e+00 0 0 0
3122 444 4 -7.4069999999999997e-02 3.4736400000000001e+00 1.7014109999999999e+01 3.5785300000000002e+00 0 0 0
3126 444 4 0.0000000000000000e+00 1.6560500000000000e+00 1.7014299999999999e+01 1.8169999999999999e+00 0 0 0
3134 444 4 0.0000000000000000e+00 5.2898399999999999e+00 1.7014299999999999e+01 1.8169999999999999e+00 0 0 0
3141 444 4 0.0000000000000000e+00 3.4729999999999999e+00 2.0648199999999999e+01 0.0000000000000000e+00 0 0 0
3142 444 4 -7.4069999999999997e-02 3.4733100000000001e+00 2.0658819999999999e+01 3.5790199999999999e+00 0 0 0
3143 444 4 0.0000000000000000e+00 1.6560500000000000e+00 1.8831250000000001e+01 0.0000000000000000e+00 0 0 0
3144 444 4 -7.4069999999999997e-02 1.6579699999999999e+00 1.8828589999999998e+01 3.5731299999999999e+00 0 0 0
3145 444 4 0.0000000000000000e+00 3.4729999999999999e+00 1.8831250000000001e+01 1.8169999999999999e+00 0 0 0
3146 444 4 0.0000000000000000e+00 1.6560500000000000e+00 2.0648199999999999e+01 1.8169999999999999e+00 0 0 0
3149 444 4 0.0000000000000000e+00 5.2898399999999999e+00 1.8831250000000001e+01 0.0000000000000000e+00 0 0 0
3150 444 4 -7.4069999999999997e-02 5.2844800000000003e+00 1.8832480000000000e+01 3.5748600000000001e+00 0 0 0
3152 444 4 0.0000000000000000e+00 5.2898399999999999e+00 2.0648199999999999e+01 1.8169999999999999e+00 0 0 0
3163 444 4 -7.4069999999999997e-02 1.6616599999999999e+00 2.2465720000000001e+01 3.5789100000000000e+00 0 0 0
3164 444 4 0.0000000000000000e+00 3.4729999999999999e+00 2.2465050000000002e+01 1.8169999999999999e+00 0 0 0
3165 444 4 0.0000000000000000e+00 1.6560500000000000e+00 2.4282000000000000e+01 1.8169999999999999e+00 0 0 0
3168 444 4 0.0000000000000000e+00 5.2898399999999999e+00 2.2465050000000002e+01 0.0000000000000000e+00 0 0 0
3169 444 4 -7.4069999999999997e-02 5.2849500000000003e+00 2.2467600000000001e+01 3.5787800000000001e+00 0 0 0
3171 444 4 0.0000000000000000e+00 5.2898399999999999e+00 2.4282000000000000e+01 1.8169999999999999e+00 0 0 0
3174 444 4 0.0000000000000000e+00 1.6560500000000000e+00 2.2465050000000002e+01 0.0000000000000000e+00 0 0 0
3188 444 4 -7.4069999999999997e-02 3.4747100000000000e+00 2.4275790000000001e+01 3.5785600000000000e+00 0 0 0
3189 444 4 0.0000000000000000e+00 3.4729999999999999e+00 2.4282000000000000e+01 0.0000000000000000e+00 0 0 0
2422 444 2 -8.2999999999999996e-01 3.7645363120494348e+00 2.2589994857085706e+01 6.6994554173886725e+00 0 -1 0
2423 444 1 4.1499999999999998e-01 3.3271976143255864e+00 2.2687742752313213e+01 5.8536349712246984e+00 0 -1 0
38 444 1 4.1499999999999998e-01 3.9013298657263187e+00 1.8997760001533209e+01 5.9830425941299614e+00 2 -2 0
37 444 2 -8.2999999999999996e-01 3.7468028589487683e+00 1.9507529590686218e+01 6.7783339645263814e+00 2 -2 0
39 444 1 4.1499999999999998e-01 4.0977978831875621e+00 2.0375468207652073e+01 6.5790422841242417e+00 2 -2 0
424 444 2 -8.2999999999999996e-01 5.7186388123098075e-01 1.9011847442611863e+01 6.9332595766781084e+00 -4 4 0
2424 444 1 4.1499999999999998e-01 3.8298042846616922e+00 2.3482036248528324e+01 7.0403867080156468e+00 0 -1 0
1750 444 2 -8.2999999999999996e-01 7.1569438748926417e-01 2.3219653444157260e+01 6.7096622047766150e+00 3 -4 0
426 444 1 4.1499999999999998e-01 1.3359236612721717e+00 1.9562898990424152e+01 7.1029266455539908e+00 -4 4 0
1311 444 1 4.1499999999999998e-01 2.9316073613952303e+00 1.7619608177766576e+01 7.0734615055451950e+00 -1 3 0
1310 444 1 4.1499999999999998e-01 3.1774712793775381e+00 1.6399316022287834e+01 6.2118736972861885e+00 -1 3 0
1309 444 2 -8.2999999999999996e-01 2.5871378477412152e+00 1.6747755574049638e+01 6.8799518435814653e+00 -1 3 0
425 444 1 4.1499999999999998e-01 5.1142549975357188e-01 1.8972663940805365e+01 5.9787733148524724e+00 -4 4 0
1751 444 1 4.1499999999999998e-01 1.0766507943147738e+00 2.3988386272976584e+01 6.2680829185914115e+00 3 -4 0
1799 444 1 4.1499999999999998e-01 1.4601792031873699e+00 2.1704472266134573e+01 7.8120853025240597e+00 3 0 0
591 444 1 4.1499999999999998e-01 5.4160348381730818e+00 2.1930931223231525e+01 7.1878922206252964e+00 -1 -2 0
1207 444 2 -8.2999999999999996e-01 1.7359251887070826e+00 1.6969319835164889e+01 1.5227696754579418e+01 2 2 0
1612 444 2 -8.2999999999999996e-01 4.2739625453638848e+00 1.7411660601714953e+01 1.3954531644067037e+01 1 -4 0
1614 444 1 4.1499999999999998e-01 4.9541870951821076e+00 1.7495888456841229e+01 1.4622688086290800e+01 1 -4 0
1108 444 2 -8.2999999999999996e-01 5.0438857264323849e+00 2.1297997406652868e+01 9.9961989526610129e+00 2 -1 0
1798 444 2 -8.2999999999999996e-01 2.0282873665406513e+00 2.1522603079133884e+01 8.5606898714511015e+00 3 0 0
1680 444 1 4.1499999999999998e-01 2.2763559440542007e+00 1.7055152705475980e+01 1.0670682302701879e+01 -3 0 0
833 444 1 4.1499999999999998e-01 2.1050753030833764e+00 2.0775459290885376e+01 1.0513005179492282e+01 5 1 0
1083 444 1 4.1499999999999998e-01 1.3576074612390858e+00 2.0892649895480588e+01 1.2564422194339537e+01 2 -6 0
1081 444 2 -8.2999999999999996e-01 8.9342712588218709e-01 2.1421820325459780e+01 1.3213072511987397e+01 2 -6 0
1082 444 1 4.1499999999999998e-01 1.4301643253592471e+00 2.2208482321402645e+01 1.3309550220881670e+01 2 -6 0
832 444 2 -8.2999999999999996e-01 2.1426519856208919e+00 2.0128374628091720e+01 1.1217350396726580e+01 5 1 0
2702 444 1 4.1499999999999998e-01 4.9451011872753723e+00 1.8556604513989271e+01 1.2721301649443415e+01 -2 -4 0
834 444 1 4.1499999999999998e-01 1.9207752372723852e+00 1.9299250913260948e+01 1.0793608108877235e+01 5 1 0
1678 444 2 -8.2999999999999996e-01 2.0164673925141914e+00 1.7632594491050156e+01 9.9528715048330785e+00 -3 0 0
2847 444 1 4.1499999999999998e-01 7.6733060517818374e-01 2.0862926960482714e+01 1.4883177084339330e+01 3 -2 0
1679 444 1 4.1499999999999998e-01 1.2336466625069731e+00 1.7221843011095920e+01 9.5858469788049199e+00 -3 0 0
2155 444 2 -8.2999999999999996e-01 4.7081672035467621e+00 2.3033456187057283e+01 1.4908329185262172e+01 0 1 0
1879 444 2 -8.2999999999999996e-01 1.7924897381962237e+00 2.3934602452787335e+01 1.2503828240880141e+01 3 -2 0
2156 444 1 4.1499999999999998e-01 4.3387924561865949e+00 2.3323551075971075e+01 1.5742379186147978e+01 0 1 0
1613 444 1 4.1499999999999998e-01 3.4520638233524576e+00 1.7511598273052503e+01 1.4434872911214299e+01 1 -4 0
1115 444 1 4.1499999999999998e-01 5.0430965566510242e+00 1.8183679817062092e+01 9.5130184648393410e+00 -3 1 0
2846 444 1 4.1499999999999998e-01 1.5824108053152706e+00 1.9920266631552241e+01 1.5742788088171864e+01 3 -2 0
2845 444 2 -8.2999999999999996e-01 9.3391925958504363e-01 2.0622412926498740e+01 1.5794567874499633e+01 3 -2 0
2701 444 2 -8.2999999999999996e-01 4.9934798678355881e+00 1.8753435184732393e+01 1.1785807130522002e+01 -2 -4 0
217 444 2 -8.2999999999999996e-01 2.9532674205134599e+00 2.4078732186097120e+01 9.9730697183828241e+00 1 1 0
873 444 1 4.1499999999999998e-01 5.1310451594442767e+00 2.1382192862548326e+01 1.4833726230808020e+01 1 0 0
219 444 1 4.1499999999999998e-01 2.2032767112769873e+00 2.3692376514877466e+01 9.5208803338805428e+00 1 1 0
2157 444 1 4.1499999999999998e-01 4.6195775745210623e+00 2.3791138004758555e+01 1.4330140587526307e+01 0 1 0
2703 444 1 4.1499999999999998e-01 4.0971799589435749e+00 1.8985327356620026e+01 1.1542691513353205e+01 -2 -4 0
1109 444 1 4.1499999999999998e-01 4.9721034614933926e+00 2.2088859037013687e+01 1.0530630624794588e+01 2 -1 0
1880 444 1 4.1499999999999998e-01 2.2551384836478379e+00 2.3876498491245226e+01 1.1667878425736170e+01 3 -2 0
1800 444 1 4.1499999999999998e-01 2.9045231584952123e+00 2.1444054156580208e+01 8.1834991154041354e+00 3 0 0
872 444 1 4.1499999999999998e-01 4.8530163096242349e+00 1.9959078136533297e+01 1.5268858124479541e+01 1 0 0
1114 444 2 -8.2999999999999996e-01 5.4081545588443038e+00 1.8492961059528614e+01 8.6839769039979409e+00 -3 1 0
2799 444 1 4.1499999999999998e-01 5.3582582751777146e+00 2.2616742655589952e+01 1.3156632733088502e+01 2 4 0
1116 444 1 4.1499999999999998e-01 4.6926193909817417e+00 1.8977822076084763e+01 8.2726960947694668e+00 -3 1 0
1631 444 1 4.1499999999999998e-01 1.0932365508695256e-01 2.2075510158276050e+01 9.0448132409247624e+00 -2 1 0
1523 444 1 4.1499999999999998e-01 8.3835467614221670e-03 2.2590984838272998e+01 1.9995520348518262e+01 -4 -1 0
1208 444 1 4.1499999999999998e-01 1.3155437001106547e+00 1.7053350442380093e+01 1.6083530061633120e+01 2 2 0
2008 444 2 -8.2999999999999996e-01 3.1027509912678157e+00 1.7088867160337340e+01 1.7826852042771410e+01 3 -1 0
1576 444 2 -8.2999999999999996e-01 4.0192306831949332e-01 1.9429065836408743e+01 1.8044875528115927e+01 -1 -1 0
1578 444 1 4.1499999999999998e-01 5.8060237580809970e-01 2.0093613954778512e+01 1.7379531729230479e+01 -1 -1 0
1647 444 1 4.1499999999999998e-01 6.9320525206241679e-01 2.4301362145400343e+01 1.7883133563724769e+01 -5 -1 0
1577 444 1 4.1499999999999998e-01 1.0503238664484791e+00 1.9594341411542008e+01 1.8729340686346269e+01 -1 -1 0
647 444 1 4.1499999999999998e-01 1.2727503735441017e+00 2.2685947677002599e+01 1.6174133738957888e+01 0 -2 0
568 444 2 -8.2999999999999996e-01 3.5594255991810462e+00 2.4366150982613103e+01 1.7019032525724949e+01 -1 1 0
1793 444 1 4.1499999999999998e-01 4.1354459199089142e+00 1.9947558027196305e+01 1.7326658307822321e+01 2 -4 0
1794 444 1 4.1499999999999998e-01 3.9036678054863634e+00 1.8466800254773833e+01 1.7113278526549880e+01 2 -4 0
1792 444 2 -8.2999999999999996e-01 4.1591003801231059e+00 1.9266881403087929e+01 1.6654087372781074e+01 2 -4 0
648 444 1 4.1499999999999998e-01 1.9213808939323591e+00 2.4049513218548459e+01 1.6283055479127359e+01 0 -2 0
2542 444 2 -8.2999999999999996e-01 2.7408701639649502e+00 2.0509650530995735e+01 1.9413987617904336e+01 -2 1 0
2543 444 1 4.1499999999999998e-01 3.0832198955111334e+00 1.9708703525008506e+01 1.9810866330558941e+01 -2 1 0
2009 444 1 4.1499999999999998e-01 2.3939548657840199e+00 1.6455706379175115e+01 1.7713064951436436e+01 3 -1 0