LAMMPS data file via write_data, version 11 Aug 2017, timestep = 1000000

3489 atoms
11 atom types
2012 bonds
5 bond types
1012 angles
5 angle types
12 dihedrals
4 dihedral types
9 impropers
1 improper types

0.0000000000000000e+00 3.0466200000000001e+01 xlo xhi
0.0000000000000000e+00 3.5179200000000002e+01 ylo yhi
0.0000000000000000e+00 6.5000000000000000e+01 zlo zhi

Masses

1 1.0079
2 15.9994
3 39.0983
4 107.868
5 15.9994
6 12.011
7 12.011
8 15.9994
9 15.9994
10 15.9994
11 1.0079

Bond Coeffs # harmonic

1 450 0.9572
2 570 1.229
3 450 1.364
4 570 1.229
5 553 0.945

Angle Coeffs # harmonic

1 100 123.32
2 85 124
3 55 104.52
4 35 113
5 100 123.32

Dihedral Coeffs # charmm

1 0.922 1 180 0
2 3.741 2 0 0
3 0.922 1 0 0
4 3.741 2 180 0

Improper Coeffs # umbrella

1 21 0

Atoms # full

3031 444 4 0.0000000000000000e+00 1.6907700000000001e+00 0.0000000000000000e+00 0.0000000000000000e+00 0 0 0
3032 444 4 0.0000000000000000e+00 4.2285399999999997e+00 1.4651900000000000e+00 0.0000000000000000e+00 0 0 0
3033 444 4 0.0000000000000000e+00 2.5366599999999999e+00 1.4651900000000000e+00 2.3927499999999999e+00 0 0 0
3034 444 4 0.0000000000000000e+00 5.0744300000000004e+00 0.0000000000000000e+00 2.3927499999999999e+00 0 0 0
3035 444 4 -8.3330000000000001e-02 8.2906999999999997e-01 1.4603999999999999e+00 4.7532600000000000e+00 0 0 0
3036 444 4 -8.3330000000000001e-02 3.3717199999999998e+00 3.2000000000000002e-03 4.7653499999999998e+00 0 0 0
3037 444 4 0.0000000000000000e+00 1.6907700000000001e+00 2.9303699999999999e+00 0.0000000000000000e+00 0 0 0
3038 444 4 0.0000000000000000e+00 4.2285399999999997e+00 4.3955599999999997e+00 0.0000000000000000e+00 0 0 0
3039 444 4 0.0000000000000000e+00 2.5366599999999999e+00 4.3955599999999997e+00 2.3927499999999999e+00 0 0 0
3040 444 4 0.0000000000000000e+00 5.0744300000000004e+00 2.9303699999999999e+00 2.3927499999999999e+00 0 0 0
3041 444 4 -8.3330000000000001e-02 8.0906999999999996e-01 4.3884200000000000e+00 4.7343700000000002e+00 0 0 0
3042 444 4 -8.3330000000000001e-02 3.3758900000000001e+00 2.9056199999999999e+00 4.7399100000000001e+00 0 0 0
3043 444 4 0.0000000000000000e+00 6.7663200000000003e+00 0.0000000000000000e+00 0.0000000000000000e+00 0 0 0
3045 444 4 0.0000000000000000e+00 7.6122100000000001e+00 1.4651900000000000e+00 2.3927499999999999e+00 0 0 0
3047 444 4 -8.3330000000000001e-02 5.9159499999999996e+00 1.4618100000000001e+00 4.7598700000000003e+00 0 0 0
3049 444 4 0.0000000000000000e+00 6.7663200000000003e+00 2.9303699999999999e+00 0.0000000000000000e+00 0 0 0
3051 444 4 0.0000000000000000e+00 7.6122100000000001e+00 4.3955599999999997e+00 2.3927499999999999e+00 0 0 0
3053 444 4 -8.3330000000000001e-02 5.9231299999999996e+00 4.3899200000000000e+00 4.7415000000000003e+00 0 0 0
3055 444 4 0.0000000000000000e+00 1.6907700000000001e+00 5.8607500000000003e+00 0.0000000000000000e+00 0 0 0
3058 444 4 0.0000000000000000e+00 5.0744300000000004e+00 5.8607500000000003e+00 2.3927499999999999e+00 0 0 0
3067 444 4 0.0000000000000000e+00 6.7663200000000003e+00 5.8607500000000003e+00 0.0000000000000000e+00 0 0 0
3079 444 6 0.0000000000000000e+00 3.3575599999999999e+00 5.7831700000000001e+00 7.0067399999999997e+00 0 0 0
3080 444 5 0.0000000000000000e+00 3.3247599999999999e+00 4.6419199999999998e+00 7.5537000000000001e+00 0 0 0
1589 444 1 4.1499999999999998e-01 4.3118390725740943e+00 2.3530942737882983e+00 7.4156021933879703e+00 4 6 0
868 444 2 -8.2999999999999996e-01 6.9245026863529358e-01 3.0856473245658447e+00 7.8128314620481030e+00 4 -2 0
869 444 1 4.1499999999999998e-01 1.5132818027644621e+00 3.5722285782461500e+00 7.7372895625356497e+00 4 -2 0
870 444 1 4.1499999999999998e-01 8.0165712284948354e-01 2.3380742175166866e+00 7.2250897464221175e+00 4 -2 0
672 444 1 4.1499999999999998e-01 3.2276303301775544e-01 3.9304571664264726e-01 6.9147208911795799e+00 -2 -2 0
2657 444 1 4.1499999999999998e-01 7.3489351470302529e+00 8.8181176178630882e-01 7.4437252800196685e+00 3 -2 0
2044 444 2 -8.2999999999999996e-01 7.4322129581759713e+00 4.3924636433358675e+00 7.4244326751956349e+00 3 0 0
2045 444 1 4.1499999999999998e-01 7.2420136214164543e+00 4.2415982835332775e+00 6.4985299203020901e+00 3 0 0
670 444 2 -8.2999999999999996e-01 7.6590147017549737e-01 1.8737991296126211e-01 7.7378624949830819e+00 -2 -2 0
1590 444 1 4.1499999999999998e-01 5.1269212385145950e+00 1.4087805302257141e+00 8.2733946042103117e+00 4 6 0
1588 444 2 -8.2999999999999996e-01 4.2991153100824890e+00 1.8889243510815472e+00 8.2526304204250067e+00 4 6 0
2656 444 2 -8.2999999999999996e-01 6.6956619717804635e+00 7.4393620657825033e-01 8.1296236708270087e+00 3 -2 0
164 444 1 4.1499999999999998e-01 3.0380148500186661e+00 1.9915614374934936e+00 1.4379899738178583e+01 0 2 0
165 444 1 4.1499999999999998e-01 1.6501282391735745e+00 2.3265361871429500e+00 1.3876452465544570e+01 0 2 0
2658 444 1 4.1499999999999998e-01 7.0976379793481712e+00 1.1046480845568565e+00 8.9198992088497295e+00 3 -2 0
1381 444 2 -8.2999999999999996e-01 5.3529355089116060e-01 3.3541385169769313e+00 1.2895140068255248e+01 2 -1 0
2512 444 2 -8.2999999999999996e-01 5.5100832248862757e+00 4.3560764438077300e+00 9.2767912906711931e+00 -4 -2 0
2514 444 1 4.1499999999999998e-01 6.2245074637594984e+00 4.6276023528947663e+00 8.7005070091506092e+00 -4 -2 0
2513 444 1 4.1499999999999998e-01 4.9102025801650173e+00 3.8762893402539302e+00 8.7056701066840958e+00 -4 -2 0
1 444 3 1.0000000000000000e+00 5.5223161384145234e+00 2.9422748723955232e+00 1.1465023577444446e+01 -4 0 0
163 444 2 -8.2999999999999996e-01 2.1426771475562254e+00 1.6545648367392334e+00 1.4347709288800571e+01 0 2 0
1448 444 1 4.1499999999999998e-01 2.5709113812579028e+00 2.3209141114655005e+00 1.0746356461373718e+01 -1 3 0
1449 444 1 4.1499999999999998e-01 2.0150420069483919e+00 3.3169763119087770e+00 1.1741728407322039e+01 -1 3 0
1447 444 2 -8.2999999999999996e-01 2.7456413498645964e+00 3.1759383710813940e+00 1.1139594359927829e+01 -1 3 0
1321 444 2 -8.2999999999999996e-01 2.3104510132315821e+00 9.9647413255687423e-01 9.6421341575844437e+00 1 -2 0
299 444 1 4.1499999999999998e-01 7.5712764979347558e+00 7.8125019468600609e-01 1.1342963275225319e+01 -3 3 0
1322 444 1 4.1499999999999998e-01 1.7110354569027661e+00 5.5856430582176819e-01 9.0378429526595934e+00 1 -2 0
2140 444 2 -8.2999999999999996e-01 4.8897744863023958e+00 2.1259315983912375e+00 1.4245768343333920e+01 -2 5 0
2141 444 1 4.1499999999999998e-01 5.5113374722522206e+00 1.3988763066581706e+00 1.4281573566749612e+01 -2 5 0
2142 444 1 4.1499999999999998e-01 5.1120570331578543e+00 2.6691526348585373e+00 1.5001898849742354e+01 -2 5 0
2334 444 1 4.1499999999999998e-01 3.7537115920713591e+00 4.7879837677996395e-01 1.2489737200798388e+01 -1 -2 0
1323 444 1 4.1499999999999998e-01 3.0455031596076356e+00 1.2712596938830976e+00 9.0940254709911077e+00 1 -2 0
1624 444 2 -8.2999999999999996e-01 4.6124496378418343e+00 5.3199811256886864e+00 1.2496464173333289e+01 -1 1 0
1100 444 1 4.1499999999999998e-01 2.7272144945590600e+00 5.4654687992922417e+00 1.6172294278535187e+01 2 2 0
1099 444 2 -8.2999999999999996e-01 3.4212407390636348e+00 5.6757195472938591e+00 1.5547511003293161e+01 2 2 0
1625 444 1 4.1499999999999998e-01 4.1271347307536574e+00 5.1132879769417690e+00 1.3295200315024042e+01 -1 1 0
487 444 2 -8.2999999999999996e-01 5.4561937281403621e+00 3.9027845788175819e+00 1.6096796230360432e+01 0 1 0
898 444 2 -8.2999999999999996e-01 7.3180686051323125e+00 1.7150900708231143e-01 1.5953110193808653e+01 0 -2 0
488 444 1 4.1499999999999998e-01 4.6719289841595737e+00 4.4480543427939709e+00 1.6034815746265302e+01 0 1 0
872 444 1 4.1499999999999998e-01 1.0086208938257988e+00 1.4869351243630513e+00 1.5693708831390028e+01 0 0 0
1383 444 1 4.1499999999999998e-01 3.3044412460495670e-01 4.1600675345601905e+00 1.3369215505178232e+01 2 -1 0
2332 444 2 -8.2999999999999996e-01 4.5043030444739980e+00 3.6644431840053182e-01 1.1906452503811551e+01 -1 -2 0
2075 444 1 4.1499999999999998e-01 2.0678699735710020e+00 8.4245265477392195e-02 1.0939570847206021e+01 1 0 0
2054 444 1 4.1499999999999998e-01 9.7472038430295327e-01 3.8202817390577373e+00 2.2385379462420548e+01 2 -1 0
2055 444 1 4.1499999999999998e-01 2.0933973464498734e-01 2.5577475673398760e+00 2.2050573216631367e+01 2 -1 0
261 444 1 4.1499999999999998e-01 5.9812944752536703e+00 2.4287182828136564e+00 1.7855518985605013e+01 2 2 0
687 444 1 4.1499999999999998e-01 1.1885702224376133e+00 5.0583883298515540e+00 1.8210051768816633e+01 -1 0 0
2053 444 2 -8.2999999999999996e-01 1.0484580638681111e+00 2.8659549164244020e+00 2.2392801979702927e+01 2 -1 0
489 444 1 4.1499999999999998e-01 6.1622381006681435e+00 4.5191219738955866e+00 1.6291376608011031e+01 0 1 0
260 444 1 4.1499999999999998e-01 5.9544745605055240e+00 1.2261272369972254e+00 1.8774731082418402e+01 2 2 0
259 444 2 -8.2999999999999996e-01 6.0583607434424120e+00 2.1776723257618062e+00 1.8775991003656937e+01 2 2 0
871 444 2 -8.2999999999999996e-01 5.5309607840179076e-01 1.3456748059440233e+00 1.6523633266059949e+01 0 0 0
1086 444 1 4.1499999999999998e-01 7.3364747735294014e+00 3.1304410261689597e+00 1.9870770842858082e+01 2 2 0
1674 444 1 4.1499999999999998e-01 3.4057549923328270e+00 2.8584232952871282e+00 1.7232577286818987e+01 1 -1 0
1672 444 2 -8.2999999999999996e-01 2.7491732387104744e+00 2.4474412461819233e+00 1.7794917275791281e+01 1 -1 0
384 444 1 4.1499999999999998e-01 3.7465313209630255e+00 3.6524071554635498e+00 2.0690727585185922e+01 -4 0 0
2792 444 1 4.1499999999999998e-01 5.5953525282370240e+00 3.3918689682459804e+00 2.3431683008103214e+01 3 -1 0
1084 444 2 -8.2999999999999996e-01 7.5554288461714103e+00 3.7831455824139733e+00 2.0535803610660601e+01 2 2 0
382 444 2 -8.2999999999999996e-01 3.4750842238300423e+00 2.7557172461501547e+00 2.0494523085256766e+01 -4 0 0
2237 444 1 4.1499999999999998e-01 1.8764225987912897e+00 9.4982201085241780e-01 2.0489617636035142e+01 -1 0 0
2791 444 2 -8.2999999999999996e-01 5.9236540675362663e+00 4.1488962151085866e+00 2.2946542823462043e+01 3 -1 0
2793 444 1 4.1499999999999998e-01 5.1421793394390338e+00 4.5426240839524024e+00 2.2558589343908171e+01 3 -1 0
1673 444 1 4.1499999999999998e-01 3.0842801256075787e+00 2.5687009547350232e+00 1.8683304952995819e+01 1 -1 0
383 444 1 4.1499999999999998e-01 3.2345854792119653e+00 2.3864148757443120e+00 2.1344233863817067e+01 -4 0 0
1840 444 2 -8.2999999999999996e-01 3.4566984569624069e+00 5.1510069678471515e+00 2.2217515876101448e+01 3 -4 0
1085 444 1 4.1499999999999998e-01 6.8721791542075277e+00 3.6881458364789572e+00 2.1199413280809676e+01 2 2 0
39 444 1 4.1499999999999998e-01 2.0181411827042743e+00 2.3761606995381093e+00 2.3522250936628136e+01 4 1 0
873 444 1 4.1499999999999998e-01 1.2314464770702283e+00 1.4510597585682077e+00 1.7190691460570665e+01 0 0 0
686 444 1 4.1499999999999998e-01 1.8328425433552304e+00 3.8967002998604836e+00 1.7483904685399558e+01 -1 0 0
37 444 2 -8.2999999999999996e-01 2.6000461262866859e+00 1.9920314494191340e+00 2.4178043025416812e+01 4 1 0
1841 444 1 4.1499999999999998e-01 2.5507200553982363e+00 5.2354628154621601e+00 2.2514673699303099e+01 3 -4 0
685 444 2 -8.2999999999999996e-01 1.7013911541176938e+00 4.8433515231100204e+00 1.7430945704637764e+01 -1 0 0
569 444 1 4.1499999999999998e-01 5.7078420440167523e+00 1.0103549528510292e+00 2.3810123460416694e+01 5 1 0
568 444 2 -8.2999999999999996e-01 5.2692591505698756e+00 1.8431197073157159e+00 2.3984422287125117e+01 5 1 0
570 444 1 4.1499999999999998e-01 4.3633103712874259e+00 1.6015167262591723e+00 2.4177081229750812e+01 5 1 0
1480 444 2 -8.2999999999999996e-01 2.8909380845660471e-01 5.5101709135204491e+00 2.2833417682288886e+01 -3 -1 0
2238 444 1 4.1499999999999998e-01 4.0998831436645328e-01 1.2677104788291618e+00 2.0690648564763180e+01 -1 0 0
2236 444 2 -8.2999999999999996e-01 1.0268953587229006e+00 5.3721835675482854e-01 2.0645482086458742e+01 -1 0 0
1367 444 1 4.1499999999999998e-01 7.1270337287991552e+00 5.7753930226115608e+00 2.0529762516831827e+01 -3 4 0
43 444 2 -8.2999999999999996e-01 7.3243937984893650e+00 5.7187658488051767e+00 1.6582076754247996e+01 2 1 0
1842 444 1 4.1499999999999998e-01 3.9373519392449920e+00 5.8059275200494502e+00 2.2723760976671819e+01 3 -4 0
900 444 1 4.1499999999999998e-01 6.7085458605541950e+00 3.1472103917025152e-03 1.6671697865328099e+01 0 -2 0
2125 444 2 -8.2999999999999996e-01 5.8847506239668999e+00 3.3200430429569705e+00 2.6199264448655509e+01 -2 -3 0
1203 444 1 4.1499999999999998e-01 2.1995576904360408e+00 5.0187207626512649e+00 2.5532197978696114e+01 4 4 0
1206 444 1 4.1499999999999998e-01 2.1766117425354121e+00 9.4139234155978813e-01 3.1664767673012573e+01 -1 2 0
1325 444 1 4.1499999999999998e-01 7.0981977306293480e+00 5.5939070164224072e+00 2.9504641491801099e+01 0 -3 0
572 444 1 4.1499999999999998e-01 9.8899737029488366e-01 1.8379300237798382e+00 2.5684410268456084e+01 0 3 0
1088 444 1 4.1499999999999998e-01 4.5839888835559766e+00 5.5904962354357437e+00 2.9371253417770539e+01 1 -4 0
2534 444 1 4.1499999999999998e-01 2.5016113877810526e+00 4.5303529738487489e+00 2.8612508679949677e+01 -3 3 0
396 444 1 4.1499999999999998e-01 2.5453502640386386e-02 2.9804299237546541e+00 3.0085394180681906e+01 1 1 0
2882 444 1 4.1499999999999998e-01 1.6734873633753697e+00 5.5110086735384967e-01 2.9248567615247147e+01 0 -1 0
2533 444 2 -8.2999999999999996e-01 1.7160085702668444e+00 4.0408687887936479e+00 2.8368653421790484e+01 -3 3 0
2194 444 2 -8.2999999999999996e-01 3.4754451750682197e-01 5.4062645108742284e+00 3.2202727219489091e+01 0 -1 0
38 444 1 4.1499999999999998e-01 2.8841106868490951e+00 2.7345259015503744e+00 2.4711186009562191e+01 4 1 0
2881 444 2 -8.2999999999999996e-01 1.8100225179288221e+00 3.8973129222757408e-01 2.8314998824484221e+01 0 -1 0
2059 444 2 -8.2999999999999996e-01 2.9776350580892328e+00 4.4609599733648908e+00 3.1690071831876093e+01 1 1 0
2884 444 2 -8.2999999999999996e-01 3.9619967390386681e+00 1.8366430636290747e+00 3.1814844298762850e+01 -1 2 0
2535 444 1 4.1499999999999998e-01 1.0323998027924803e+00 4.7065604480037573e+00 2.8292722079356263e+01 -3 3 0
1204 444 2 -8.2999999999999996e-01 1.4291449682524773e+00 7.3032711711669429e-01 3.1105324340292540e+01 -1 2 0
2060 444 1 4.1499999999999998e-01 3.1595071722625723e+00 3.5541046469544222e+00 3.1443559499228709e+01 1 1 0
1201 444 2 -8.2999999999999996e-01 2.3473910387369368e+00 4.1152208160268477e+00 2.5811600887540305e+01 4 4 0
573 444 1 4.1499999999999998e-01 8.2141462946517030e-01 1.1984571526048122e+00 2.7046352155326808e+01 0 3 0
1610 444 1 4.1499999999999998e-01 7.4146356194878278e+00 5.2615679799838837e+00 2.5485554184588793e+01 -1 3 0
2126 444 1 4.1499999999999998e-01 5.7156463148955012e+00 2.9392541883261507e+00 2.7061027568157698e+01 -2 -3 0
195 444 1 4.1499999999999998e-01 3.4350691013949897e+00 2.6471964625690245e+00 2.8419638495915393e+01 -5 3 0
571 444 2 -8.2999999999999996e-01 3.2482985720388480e-01 1.5027982148468215e+00 2.6286739119005375e+01 0 3 0
193 444 2 -8.2999999999999996e-01 4.1811392778983816e+00 2.1092721189305967e+00 2.8154593370374194e+01 -5 3 0
1202 444 1 4.1499999999999998e-01 1.8800242887707261e+00 4.0418252804845567e+00 2.6643715125425924e+01 4 4 0
669 444 1 4.1499999999999998e-01 6.1308978579714903e+00 3.6841888468774955e+00 3.0136896233138796e+01 5 0 0
1320 444 1 4.1499999999999998e-01 5.7149358822368814e+00 4.8766868299277917e+00 2.5864049255930606e+01 -3 1 0
668 444 1 4.1499999999999998e-01 5.6012126451424749e+00 2.5597413619979141e+00 2.9272635107855947e+01 5 0 0
2885 444 1 4.1499999999999998e-01 4.6683292198111213e+00 1.5291107245891447e+00 3.1246732920080227e+01 -1 2 0
667 444 2 -8.2999999999999996e-01 6.0439059439491389e+00 2.7315264414509897e+00 3.0103745612787282e+01 5 0 0
194 444 1 4.1499999999999998e-01 3.8545476382869066e+00 1.2103320645373288e+00 2.8193024304001156e+01 -5 3 0
2127 444 1 4.1499999999999998e-01 5.5590477349204752e+00 2.6667431620152144e+00 2.5580112253646845e+01 -2 -3 0
2061 444 1 4.1499999999999998e-01 3.0838215758515717e+00 4.9563305306585024e+00 3.0877935878983596e+01 1 1 0
2196 444 1 4.1499999999999998e-01 1.2377725512143316e+00 5.0545437558417401e+00 3.2207134598656346e+01 0 -1 0
1324 444 2 -8.2999999999999996e-01 6.3389967759053008e+00 5.5997563149450231e+00 3.0087575627345831e+01 0 -3 0
1318 444 2 -8.2999999999999996e-01 5.5596310657868893e+00 5.7276792526569631e+00 2.5454263686184042e+01 -3 1 0
2730 444 1 4.1499999999999998e-01 3.9472996916388956e+00 5.4565593942701804e+00 3.4790071587009614e+01 0 3 0
2729 444 1 4.1499999999999998e-01 3.1129941696986099e+00 5.3819766768038066e+00 3.3529013690757182e+01 0 3 0
2886 444 1 4.1499999999999998e-01 4.3149689539728451e+00 1.7572235708244131e+00 3.2701035645494628e+01 -1 2 0
3056 444 4 0.0000000000000000e+00 4.2285399999999997e+00 7.3259400000000001e+00 0.0000000000000000e+00 0 0 0
3057 444 4 0.0000000000000000e+00 2.5366599999999999e+00 7.3259400000000001e+00 2.3927499999999999e+00 0 0 0
3059 444 4 -8.3330000000000001e-02 8.2267999999999997e-01 7.3346600000000004e+00 4.7425300000000004e+00 0 0 0
3060 444 4 -8.3330000000000001e-02 3.3789699999999998e+00 5.8751100000000003e+00 4.8328499999999996e+00 0 0 0
3061 444 4 0.0000000000000000e+00 1.6907700000000001e+00 8.7911300000000008e+00 0.0000000000000000e+00 0 0 0
3062 444 4 0.0000000000000000e+00 4.2285399999999997e+00 1.0256309999999999e+01 0.0000000000000000e+00 0 0 0
3063 444 4 0.0000000000000000e+00 2.5366599999999999e+00 1.0256309999999999e+01 2.3927499999999999e+00 0 0 0
3064 444 4 0.0000000000000000e+00 5.0744300000000004e+00 8.7911300000000008e+00 2.3927499999999999e+00 0 0 0
3065 444 4 -8.3330000000000001e-02 8.3113000000000004e-01 1.0262119999999999e+01 4.7605399999999998e+00 0 0 0
3066 444 4 -8.3330000000000001e-02 3.3725999999999998e+00 8.8216300000000007e+00 4.7368199999999998e+00 0 0 0
3069 444 4 0.0000000000000000e+00 7.6122100000000001e+00 7.3259400000000001e+00 2.3927499999999999e+00 0 0 0
3071 444 4 -8.3330000000000001e-02 5.9350100000000001e+00 7.3414999999999999e+00 4.7358500000000001e+00 0 0 0
3073 444 4 0.0000000000000000e+00 6.7663200000000003e+00 8.7911300000000008e+00 0.0000000000000000e+00 0 0 0
3075 444 4 0.0000000000000000e+00 7.6122100000000001e+00 1.0256309999999999e+01 2.3927499999999999e+00 0 0 0
3077 444 4 -8.3330000000000001e-02 5.9162999999999997e+00 1.0266360000000001e+01 4.7564399999999996e+00 0 0 0
3081 444 5 0.0000000000000000e+00 3.3965399999999999e+00 6.8584899999999998e+00 7.7033100000000001e+00 0 0 0
3082 444 4 0.0000000000000000e+00 1.6907700000000001e+00 1.1721500000000001e+01 0.0000000000000000e+00 0 0 0
3085 444 4 0.0000000000000000e+00 5.0744300000000004e+00 1.1721500000000001e+01 2.3927499999999999e+00 0 0 0
3087 444 4 -8.3330000000000001e-02 3.3717199999999998e+00 1.1724700000000000e+01 4.7653499999999998e+00 0 0 0
3094 444 4 0.0000000000000000e+00 6.7663200000000003e+00 1.1721500000000001e+01 0.0000000000000000e+00 0 0 0
2269 444 2 -8.2999999999999996e-01 6.9308904211613367e+00 1.0316117495755776e+01 7.4779203300723802e+00 -2 1 0
218 444 1 4.1499999999999998e-01 4.0903798951013490e+00 1.0160883371162244e+01 7.2637290564934904e+00 -2 5 0
219 444 1 4.1499999999999998e-01 2.8091621017112098e+00 9.6682188484988174e+00 7.9022102765697220e+00 -2 5 0
217 444 2 -8.2999999999999996e-01 3.6965084300268036e+00 9.9591345637476607e+00 8.1124898073667815e+00 -2 5 0
2401 444 2 -8.2999999999999996e-01 1.1975747925492906e+00 8.8113218958973203e+00 7.7032482741153867e+00 -2 -2 0
476 444 1 4.1499999999999998e-01 6.8417606357865708e+00 7.1844898826139838e+00 7.3902711905053193e+00 1 1 0
477 444 1 4.1499999999999998e-01 7.4977966778128229e+00 5.9822923945529078e+00 8.0354325561079243e+00 1 1 0
2403 444 1 4.1499999999999998e-01 1.7854455344323128e+00 8.0576207775229083e+00 7.6525060336279633e+00 -2 -2 0
2271 444 1 4.1499999999999998e-01 6.9443101489321366e+00 9.8936461733755117e+00 6.6191012646426177e+00 -2 1 0
2402 444 1 4.1499999999999998e-01 6.0697246626112711e-01 8.6066427542577451e+00 8.4281808787265362e+00 -2 -2 0
2893 444 2 -8.2999999999999996e-01 2.1404730580584230e-01 9.6726694318561819e+00 1.0846111057061238e+01 -2 0 0
551 444 1 4.1499999999999998e-01 3.0958596138025873e+00 8.4475612836996010e+00 1.5748367551342840e+01 -3 1 0
16 444 7 1.0800000000000001e+00 2.4449277819733646e+00 7.9002592603429607e+00 1.3052530510437908e+01 6 -3 0
20 444 11 3.5999999999999999e-01 1.0276916662060194e+00 8.9685089179171182e+00 1.2621466664308615e+01 6 -3 0
19 444 10 -7.8000000000000003e-01 1.1435358561757742e+00 8.0631416399226374e+00 1.2863122393984709e+01 6 -3 0
274 444 2 -8.2999999999999996e-01 6.0162309801239058e+00 7.7689619007997228e+00 1.0443161589873728e+01 3 -3 0
276 444 1 4.1499999999999998e-01 6.4925202159815791e+00 7.4005327686475413e+00 9.6990913175187359e+00 3 -3 0
275 444 1 4.1499999999999998e-01 6.4720708061757941e+00 7.4277967451672948e+00 1.1212608353138402e+01 3 -3 0
12 444 3 1.0000000000000000e+00 4.1868794613633273e+00 9.7345535095493947e+00 1.0711740704401990e+01 -1 1 0
2986 444 2 -8.2999999999999996e-01 5.5779283480413779e+00 7.5102963689459035e+00 1.4925294429441621e+01 -2 -2 0
781 444 2 -8.2999999999999996e-01 5.4629366296814430e+00 1.1232566709719126e+01 1.2452547845131258e+01 0 -2 0
2988 444 1 4.1499999999999998e-01 5.1182690800521105e+00 7.6295816746056726e+00 1.4094201027794030e+01 -2 -2 0
2987 444 1 4.1499999999999998e-01 4.9021474701114647e+00 7.2080105768082552e+00 1.5532069066444429e+01 -2 -2 0
17 444 8 -8.5999999999999999e-01 3.2207221513266289e+00 7.8322608659633355e+00 1.2097741070035346e+01 6 -3 0
782 444 1 4.1499999999999998e-01 6.2100618879740805e+00 1.0760326186271829e+01 1.2085090805836671e+01 0 -2 0
2378 444 1 4.1499999999999998e-01 1.2364425143275655e+00 6.7874450418580876e+00 1.1398139178628732e+01 4 2 0
2219 444 1 4.1499999999999998e-01 1.6115265551336961e+00 1.1201120216851514e+01 1.1097181511693806e+01 4 3 0
2218 444 2 -8.2999999999999996e-01 2.4796405451639481e+00 1.1599323049690566e+01 1.1160782639929028e+01 4 3 0
2377 444 2 -8.2999999999999996e-01 1.1755736908852361e+00 6.2464921211149393e+00 1.0610803559778585e+01 4 2 0
18 444 9 -8.0000000000000004e-01 2.8821600939063101e+00 7.6424264299803291e+00 1.4139207921351593e+01 6 -3 0
2701 444 2 -8.2999999999999996e-01 2.0654611932225824e+00 1.1437794076215566e+01 1.4073393936018579e+01 3 -3 0
2788 444 2 -8.2999999999999996e-01 7.5998696815690820e+00 1.0380052139339670e+01 1.1356233330877288e+01 3 -2 0
44 444 1 4.1499999999999998e-01 6.8985839558451687e+00 6.4283406218643844e+00 1.6101013244556036e+01 2 1 0
2510 444 1 4.1499999999999998e-01 5.9554350892328500e+00 1.1412766270497944e+01 8.5336869956308057e+00 -2 6 0
2379 444 1 4.1499999999999998e-01 2.3590629281964590e-01 6.1233440529212126e+00 1.0476297266244440e+01 4 2 0
1377 444 1 4.1499999999999998e-01 7.5145075724780517e+00 1.1193107039510094e+01 1.5265046264813970e+01 -1 -4 0
1866 444 1 4.1499999999999998e-01 5.1608699659933608e+00 1.1409716452522410e+01 1.5359308747333648e+01 3 1 0
1101 444 1 4.1499999999999998e-01 3.0133491517539377e+00 6.2843814060499810e+00 1.4931566911639568e+01 2 2 0
788 444 1 4.1499999999999998e-01 5.9227496579358627e+00 9.0460740237161925e+00 1.5726626936424099e+01 -1 -2 0
787 444 2 -8.2999999999999996e-01 5.9069816071451804e+00 9.9473789483439869e+00 1.6048547245313006e+01 -1 -2 0
1626 444 1 4.1499999999999998e-01 5.1516555181924142e+00 6.0750123581744573e+00 1.2731872158260066e+01 -1 1 0
3 444 3 1.0000000000000000e+00 3.7058369913691735e+00 5.9519063938392600e+00 1.0189855261111779e+01 2 1 0
2702 444 1 4.1499999999999998e-01 1.2773001776222601e+00 1.0912921052094029e+01 1.4213189416958969e+01 3 -3 0
475 444 2 -8.2999999999999996e-01 7.3673422130430382e+00 6.9240134189316356e+00 8.1466757780159504e+00 1 1 0
2703 444 1 4.1499999999999998e-01 2.4348422877138014e+00 1.1553933928873962e+01 1.4948780324206833e+01 3 -3 0
1312 444 2 -8.2999999999999996e-01 7.3374156745114831e+00 6.8152360103978875e+00 1.2241264199507096e+01 0 2 0
2796 444 1 4.1499999999999998e-01 2.2136802820677128e+00 1.1588110480954436e+01 8.5184214680327415e+00 2 -2 0
1314 444 1 4.1499999999999998e-01 7.4682943754223610e+00 5.9038053189744062e+00 1.1979736510489174e+01 0 2 0
602 444 1 4.1499999999999998e-01 1.4493811663666927e+00 1.1399151677973787e+01 1.8438957270553054e+01 6 3 0
474 444 1 4.1499999999999998e-01 1.7020914521645325e+00 6.6431545422448766e+00 1.9745276652169270e+01 2 1 0
2064 444 1 4.1499999999999998e-01 7.4724142344240922e+00 7.9216426916283096e+00 2.1922878028360405e+01 1 0 0
887 444 1 4.1499999999999998e-01 2.2291495200293578e+00 1.1315017247543720e+01 2.0631185652770149e+01 4 -1 0
1613 444 1 4.1499999999999998e-01 6.2687147771069531e+00 1.0735227815402935e+01 2.0159513544253286e+01 -3 5 0
886 444 2 -8.2999999999999996e-01 1.5067098880452641e+00 1.1726144929751088e+01 2.0156540567710618e+01 4 -1 0
2723 444 1 4.1499999999999998e-01 6.0663568689113267e-01 9.7526814029446545e+00 1.7101655026262666e+01 1 -3 0
2062 444 2 -8.2999999999999996e-01 7.4086939097351179e+00 8.2428115451159183e+00 2.2822334611532053e+01 1 0 0
552 444 1 4.1499999999999998e-01 3.0970392777826872e+00 7.4566318716941913e+00 1.6892899344358927e+01 -3 1 0
550 444 2 -8.2999999999999996e-01 3.4338065382210230e+00 8.3144060426733706e+00 1.6633971642957484e+01 -3 1 0
473 444 1 4.1499999999999998e-01 2.9546991741879319e-01 7.2026014095609794e+00 1.9727097204719609e+01 2 1 0
2063 444 1 4.1499999999999998e-01 6.4901102328892391e+00 8.1140008532070986e+00 2.3058647603831488e+01 1 0 0
789 444 1 4.1499999999999998e-01 5.1968085996665501e+00 9.9606470862652792e+00 1.6690193699883626e+01 -1 -2 0
2971 444 2 -8.2999999999999996e-01 4.0949562025828063e+00 1.1085105445831219e+01 2.1458136426699237e+01 -2 1 0
2973 444 1 4.1499999999999998e-01 4.2455369947038344e+00 1.0944921284069929e+01 2.2392966048285039e+01 -2 1 0
1481 444 1 4.1499999999999998e-01 2.8325850212940651e-02 6.4311070161269495e+00 2.2822994773566755e+01 -3 -1 0
2877 444 1 4.1499999999999998e-01 4.3639299079808449e+00 1.0161044656418440e+01 1.9091772098947914e+01 -4 2 0
2876 444 1 4.1499999999999998e-01 3.3781361358310105e+00 1.0709171906874197e+01 1.8081988509030296e+01 -4 2 0
1525 444 2 -8.2999999999999996e-01 4.9940940997191676e+00 8.6409581057784823e+00 2.0715069627758133e+01 1 -2 0
1526 444 1 4.1499999999999998e-01 4.4792351693734078e+00 8.0319523431311541e+00 2.1244469837106319e+01 1 -2 0
2856 444 1 4.1499999999999998e-01 5.0055610162239779e+00 6.8067896611362748e+00 2.4175455105740038e+01 -4 1 0
1527 444 1 4.1499999999999998e-01 5.7968605222046259e+00 8.1615035238466778e+00 2.0510320440451849e+01 1 -2 0
2875 444 2 -8.2999999999999996e-01 4.2559594749136833e+00 1.0850424640653157e+01 1.8436539576374543e+01 -4 2 0
2972 444 1 4.1499999999999998e-01 4.4152709036869133e+00 1.0285395498559234e+01 2.1040889300710180e+01 -2 1 0
1614 444 1 4.1499999999999998e-01 6.8040288957229391e+00 1.0122870727882296e+01 1.8882660799221657e+01 -3 5 0
2855 444 1 4.1499999999999998e-01 4.4736162895503018e+00 8.1526672230659578e+00 2.3730994164620576e+01 -4 1 0
2193 444 1 4.1499999999999998e-01 5.4424897445912346e-01 9.5840351156474419e+00 2.0164627688996038e+01 0 -4 0
2854 444 2 -8.2999999999999996e-01 4.8732574828631483e+00 7.3491812435548951e+00 2.3397932972007670e+01 -4 1 0
1366 444 2 -8.2999999999999996e-01 7.2303030036469602e+00 6.7092257118824197e+00 2.0346667414013734e+01 -3 4 0
2917 444 2 -8.2999999999999996e-01 3.6320688077213745e+00 9.8551483651255705e+00 2.4114135343342454e+01 2 -4 0
472 444 2 -8.2999999999999996e-01 7.8803118139779771e-01 6.3891469306551683e+00 1.9617973612557062e+01 2 1 0
1612 444 2 -8.2999999999999996e-01 7.0407723267257616e+00 1.0304938851128083e+01 1.9792075891162813e+01 -3 5 0
601 444 2 -8.2999999999999996e-01 1.6896851219587099e+00 1.1304488427049263e+01 1.7517260568690489e+01 6 3 0
1421 444 1 4.1499999999999998e-01 2.9481117251091910e-01 8.7817420439885154e+00 3.1925352014870903e+01 4 2 0
188 444 1 4.1499999999999998e-01 3.2358509693374476e-01 1.0512811779709711e+01 3.0596663404171572e+01 -4 5 0
1396 444 2 -8.2999999999999996e-01 5.7486046211344872e+00 1.0172290955220161e+01 3.1294938217917444e+01 2 1 0
1338 444 1 4.1499999999999998e-01 7.2164078666215792e-01 1.0634420748106352e+01 2.5683619297821739e+01 2 1 0
1089 444 1 4.1499999999999998e-01 3.6485705309951735e+00 6.5742445111732710e+00 2.8701083965454036e+01 1 -4 0
2647 444 2 -8.2999999999999996e-01 4.7637386928101808e+00 1.0793343757394839e+01 2.6145268694939190e+01 -2 1 0
1326 444 1 4.1499999999999998e-01 6.6651291012548546e+00 5.9814218715690926e+00 3.0902561082072779e+01 0 -3 0
2086 444 2 -8.2999999999999996e-01 4.4550993695661827e+00 1.0712466525527960e+01 2.8887811542975012e+01 4 1 0
2839 444 2 -8.2999999999999996e-01 7.4748660419303228e+00 8.1776859925869800e+00 3.1498719150368899e+01 4 -1 0
727 444 2 -8.2999999999999996e-01 1.9558870215490252e+00 6.6597398355329442e+00 2.5070542523249014e+01 4 -2 0
1422 444 1 4.1499999999999998e-01 1.6308073616603618e+00 8.0771555802274939e+00 3.1822553675089701e+01 4 2 0
2918 444 1 4.1499999999999998e-01 2.7477644323836117e+00 9.7921583552288389e+00 2.4475064776385974e+01 2 -4 0
1420 444 2 -8.2999999999999996e-01 8.6798999935580767e-01 8.1739864286121051e+00 3.2392611083650003e+01 4 2 0
187 444 2 -8.2999999999999996e-01 7.4362289538244286e-01 1.1371806237644618e+01 3.0640594079961943e+01 -4 5 0
2195 444 1 4.1499999999999998e-01 4.6199378276305508e-01 6.3504164330102775e+00 3.2310948295617308e+01 0 -1 0
1336 444 2 -8.2999999999999996e-01 8.0367453567095670e-01 9.6953242967755724e+00 2.5849752495300539e+01 2 1 0
1337 444 1 4.1499999999999998e-01 8.1143406630267534e-01 9.6201964395330393e+00 2.6803968124456944e+01 2 1 0
1397 444 1 4.1499999999999998e-01 6.3518995535270841e+00 1.0886970468812905e+01 3.1498655761979254e+01 2 1 0
2137 444 2 -8.2999999999999996e-01 6.1486071937055824e+00 8.4903152005665579e+00 2.6514937864703885e+01 1 2 0
3018 444 1 4.1499999999999998e-01 1.0968322861135775e+00 9.4227041425121243e+00 2.9012183090049561e+01 5 2 0