LAMMPS data file via write_data, version 11 Aug 2017, timestep = 1000000

3561 atoms
12 atom types
2024 bonds
5 bond types
1018 angles
5 angle types
12 dihedrals
4 dihedral types
9 impropers
1 improper types

0.0000000000000000e+00 3.2704500000000003e+01 xlo xhi
0.0000000000000000e+00 3.2704500000000003e+01 ylo yhi
0.0000000000000000e+00 8.0000000000000000e+01 zlo zhi

Masses

1 1.0079
2 15.9994
3 39.0983
4 63.546
5 15.9994
6 12.011
7 1.0079
8 12.011
9 15.9994
10 15.9994
11 15.9994
12 1.0079

Bond Coeffs # harmonic

1 450 0.9572
2 570 1.229
3 450 1.364
4 570 1.229
5 553 0.945

Angle Coeffs # harmonic

1 100 123.32
2 85 124
3 55 104.52
4 35 113
5 100 123.32

Dihedral Coeffs # charmm

1 0.922 1 180 0
2 3.741 2 0 0
3 0.922 1 0 0
4 3.741 2 180 0

Improper Coeffs # umbrella

1 21 0

Atoms # full

3049 444 4 -7.4069999999999997e-02 1.6560800000000000e+00 6.6800999999999999e-01 3.5942400000000001e+00 0 0 0
3051 444 4 0.0000000000000000e+00 1.6560500000000000e+00 2.4790000000000001e+00 1.8169999999999999e+00 0 0 0
3060 444 4 0.0000000000000000e+00 1.6560500000000000e+00 6.6205000000000003e-01 0.0000000000000000e+00 0 0 0
1272 444 1 4.1499999999999998e-01 8.5912978758391947e-02 3.6744341534609477e+00 7.1567324143822013e+00 2 2 0
1391 444 1 4.1499999999999998e-01 1.8297376220316117e+00 2.0892464606348269e+00 6.3088237141610355e+00 2 0 0
2715 444 1 4.1499999999999998e-01 4.2258440128478242e-01 1.6298856413610872e+00 7.4772549963951480e+00 5 -3 0
597 444 1 4.1499999999999998e-01 7.5069368248772139e-02 3.2629089498614126e+00 1.1255964972576612e+01 3 -3 0
641 444 1 4.1499999999999998e-01 4.6958184547198301e-01 7.0176226270915265e-01 9.9206301890099873e+00 6 4 0
640 444 2 -8.2999999999999996e-01 8.9180008250312581e-01 8.3754365958594512e-01 9.0723807732859321e+00 6 4 0
2538 444 1 4.1499999999999998e-01 1.2328902284296199e+00 3.6496476401603406e-01 1.4633825162037155e+01 1 -2 0
596 444 1 4.1499999999999998e-01 1.5805540059804584e+00 3.1652208095403371e+00 1.1381936232342431e+01 3 -3 0
1291 444 2 -8.2999999999999996e-01 1.9369941045066905e-01 3.9941183262468105e-01 1.1485494477312708e+01 -1 0 0
2536 444 2 -8.2999999999999996e-01 3.6363823103349735e-01 5.8184859258872001e-01 1.4296787722135454e+01 1 -2 0
595 444 2 -8.2999999999999996e-01 8.2689785910758384e-01 3.6717099022571316e+00 1.1684762924203264e+01 3 -3 0
642 444 1 4.1499999999999998e-01 1.8097258429379572e+00 6.1130963521102910e-01 9.2222552210029853e+00 6 4 0
1292 444 1 4.1499999999999998e-01 4.9225766714990377e-02 7.3561895471126537e-01 1.2369985300777875e+01 -1 0 0
1574 444 1 4.1499999999999998e-01 1.4840610570480566e+00 1.5955731159372109e+00 1.7880236582309557e+01 0 6 0
1575 444 1 4.1499999999999998e-01 2.0219169132681634e+00 1.4433168936899428e+00 1.6473316377839136e+01 0 6 0
1573 444 2 -8.2999999999999996e-01 1.6811778075115524e+00 2.0939608101856275e+00 1.7087149811290956e+01 0 6 0
162 444 1 4.1499999999999998e-01 1.9509969673932612e+00 1.0131863397790906e+00 1.9940742861816755e+01 -3 -1 0
3066 444 4 0.0000000000000000e+00 1.6560500000000000e+00 4.2959500000000004e+00 0.0000000000000000e+00 0 0 0
3067 444 4 -7.4069999999999997e-02 1.6729900000000000e+00 4.2774599999999996e+00 3.5756199999999998e+00 0 0 0
3069 444 4 0.0000000000000000e+00 1.6560500000000000e+00 6.1128000000000000e+00 1.8169999999999999e+00 0 0 0
3086 444 4 0.0000000000000000e+00 1.6560500000000000e+00 7.9297500000000003e+00 0.0000000000000000e+00 0 0 0
3087 444 4 -7.4069999999999997e-02 1.6946699999999999e+00 7.9631800000000004e+00 3.5758100000000002e+00 0 0 0
1270 444 2 -8.2999999999999996e-01 2.0454226003232781e-01 4.4547935357729020e+00 7.6982111377195421e+00 2 2 0
1271 444 1 4.1499999999999998e-01 1.1501431049908279e+00 4.6033279446470985e+00 7.7012193943781666e+00 2 2 0
1172 444 1 4.1499999999999998e-01 1.0873996417436305e+00 6.7839965227309929e+00 6.0758391905046114e+00 1 0 0
1171 444 2 -8.2999999999999996e-01 1.6695821733583933e+00 7.1406934503992696e+00 6.7467062866108405e+00 1 0 0
1173 444 1 4.1499999999999998e-01 2.0418178964171196e+00 6.3702382531245219e+00 7.1757415332816548e+00 1 0 0
1123 444 2 -8.2999999999999996e-01 5.3954579573934436e-01 6.6413598818196808e+00 9.8254430136475648e+00 -2 0 0
940 444 2 -8.2999999999999996e-01 6.8295189751141538e-01 6.4622136404590451e+00 1.4595210536295101e+01 -1 -3 0
941 444 1 4.1499999999999998e-01 1.2285307213538401e+00 6.5522291220428333e+00 1.3813882921855130e+01 -1 -3 0
1125 444 1 4.1499999999999998e-01 1.4419850510603907e+00 6.4271481914124884e+00 1.0061979683149563e+01 -2 0 0
3027 444 3 1.0000000000000000e+00 1.9567004244485209e+00 4.5275639443940223e+00 1.5619338772478882e+01 -2 3 0
1124 444 1 4.1499999999999998e-01 2.0831041813104426e-02 5.9186493106281022e+00 1.0178793812944114e+01 -2 0 0
832 444 2 -8.2999999999999996e-01 1.9671706913657641e+00 6.2050470081128539e+00 1.7832416979101058e+01 4 1 0
833 444 1 4.1499999999999998e-01 1.1230690633812324e+00 5.8135894373697727e+00 1.8057106338051490e+01 4 1 0
834 444 1 4.1499999999999998e-01 1.7627447213154057e+00 7.1189214972259691e+00 1.7634236876596500e+01 4 1 0
3089 444 4 0.0000000000000000e+00 1.6560500000000000e+00 9.7467000000000006e+00 1.8169999999999999e+00 0 0 0
3106 444 4 -7.4069999999999997e-02 1.6560800000000000e+00 1.1569509999999999e+01 3.5942400000000001e+00 0 0 0
3117 444 4 0.0000000000000000e+00 1.6560500000000000e+00 1.1563549999999999e+01 0.0000000000000000e+00 0 0 0
2752 444 2 -8.2999999999999996e-01 1.2569622742878221e+00 1.0142103741722909e+01 6.3869056486961648e+00 0 0 0
2753 444 1 4.1499999999999998e-01 3.0167481314195416e-01 1.0193289413742376e+01 6.4191323986952247e+00 0 0 0
2754 444 1 4.1499999999999998e-01 1.4494574741005213e+00 9.2066306076229942e+00 6.4506864715124896e+00 0 0 0
558 444 1 4.1499999999999998e-01 9.8093993385694034e-01 1.2103685979710846e+01 6.5219832228845043e+00 -1 -4 0
1941 444 1 4.1499999999999998e-01 7.1196310350631842e-02 9.2814664236435789e+00 8.0780916669795744e+00 0 1 0
1007 444 1 4.1499999999999998e-01 8.3817892527648097e-01 1.0893607258272656e+01 9.2607846666479698e+00 1 2 0
1008 444 1 4.1499999999999998e-01 2.0061899335857665e+00 1.1763696077791110e+01 9.6738115961742732e+00 1 2 0
1939 444 2 -8.2999999999999996e-01 3.8972422395363604e-01 9.3323515453036254e+00 8.9793034074159745e+00 0 1 0
1103 444 1 4.1499999999999998e-01 1.3950693706147483e+00 1.1502314461938738e+01 1.3845171717652853e+01 3 4 0
2118 444 1 4.1499999999999998e-01 5.9795409913034135e-02 1.0035846444029859e+01 1.1959914716315394e+01 2 -2 0
1102 444 2 -8.2999999999999996e-01 6.3221869327374380e-01 1.1137984188821573e+01 1.3396223852866445e+01 3 4 0
1006 444 2 -8.2999999999999996e-01 1.0506431404312317e+00 1.1715570387482014e+01 9.7029017882046986e+00 1 2 0
2061 444 1 4.1499999999999998e-01 1.3811555940465441e+00 1.1712455295489972e+01 1.5908474030101445e+01 -2 0 0
1940 444 1 4.1499999999999998e-01 4.9983423630977086e-01 8.4199075955544451e+00 9.2468013887105514e+00 0 1 0
899 444 1 4.1499999999999998e-01 1.7519384476512045e+00 9.5147027023534818e+00 1.6853333077390246e+01 -2 0 0
900 444 1 4.1499999999999998e-01 1.5725545464412298e+00 8.6518782908692717e+00 1.8084288267570550e+01 -2 0 0
2060 444 1 4.1499999999999998e-01 1.4408362863359930e-01 1.1151194121173923e+01 1.6576706270420061e+01 -2 0 0
2059 444 2 -8.2999999999999996e-01 1.1003328577300033e+00 1.1127552337541530e+01 1.6612221306441736e+01 -2 0 0
898 444 2 -8.2999999999999996e-01 2.0277934682844236e+00 8.6850321707592695e+00 1.7242926081252627e+01 -2 0 0
797 444 1 4.1499999999999998e-01 3.8988648145330973e-01 9.8961649985235720e+00 1.9069983635233381e+01 -2 -1 0
796 444 2 -8.2999999999999996e-01 5.5900080900467652e-01 8.9886369436829501e+00 1.9323015387912264e+01 -2 -1 0
399 444 1 4.1499999999999998e-01 1.8942986053528138e-01 1.2173183703581270e+01 1.8848153690183111e+01 1 3 0
3108 444 4 0.0000000000000000e+00 1.6560500000000000e+00 1.3380500000000000e+01 1.8169999999999999e+00 0 0 0
3123 444 4 0.0000000000000000e+00 1.6560500000000000e+00 1.5197450000000000e+01 0.0000000000000000e+00 0 0 0
3124 444 4 -7.4069999999999997e-02 1.6729900000000000e+00 1.5178960000000000e+01 3.5756199999999998e+00 0 0 0
2796 444 1 4.1499999999999998e-01 3.5780830423827781e-01 1.4450601404567694e+01 7.2884715217796892e+00 2 0 0
556 444 2 -8.2999999999999996e-01 7.2154135596009428e-01 1.3021267819850868e+01 6.4383865569021657e+00 -1 -4 0
557 444 1 4.1499999999999998e-01 1.5450271241209184e+00 1.3493068212136786e+01 6.3138534286756034e+00 -1 -4 0
2794 444 2 -8.2999999999999996e-01 1.3142924675387535e-01 1.5299545230281920e+01 7.6683135727940499e+00 2 0 0
2014 444 2 -8.2999999999999996e-01 5.6334975109812158e-01 1.5158428517185559e+01 1.5501743493633436e+01 -4 0 0
1106 444 1 4.1499999999999998e-01 1.6092319010089902e+00 1.5321913244513107e+01 1.0030234871441630e+01 0 -1 0
2016 444 1 4.1499999999999998e-01 2.7222475550186753e-01 1.4924653874026655e+01 1.4620364784092587e+01 -4 0 0
1107 444 1 4.1499999999999998e-01 1.6861571340995636e+00 1.3850429167717270e+01 9.6827973645580894e+00 0 -1 0
2015 444 1 4.1499999999999998e-01 3.1650681860657992e-01 1.6078019505440629e+01 1.5599998619282779e+01 -4 0 0
1105 444 2 -8.2999999999999996e-01 1.8038526123749874e+00 1.4464153767377796e+01 1.0407864154424157e+01 0 -1 0
2558 444 1 4.1499999999999998e-01 2.0064383492109394e+00 1.3408998989416085e+01 1.4248847310266145e+01 0 3 0
2177 444 1 4.1499999999999998e-01 8.0172833173731106e-01 1.5242760499289577e+01 1.9992454692637139e+01 5 -2 0
1709 444 1 4.1499999999999998e-01 2.0090611285689373e+00 1.6056911390473456e+01 1.6685062831792003e+01 -8 0 0
3126 444 4 0.0000000000000000e+00 1.6560500000000000e+00 1.7014299999999999e+01 1.8169999999999999e+00 0 0 0
3143 444 4 0.0000000000000000e+00 1.6560500000000000e+00 1.8831250000000001e+01 0.0000000000000000e+00 0 0 0
3144 444 4 -7.4069999999999997e-02 1.6946699999999999e+00 1.8864680000000000e+01 3.5758100000000002e+00 0 0 0
618 444 1 4.1499999999999998e-01 1.7789626094187094e+00 1.6583838837782395e+01 7.5864516523913483e+00 -2 2 0
617 444 1 4.1499999999999998e-01 1.5865071547205125e+00 1.6768731247432651e+01 6.0962600501198629e+00 -2 2 0
2596 444 2 -8.2999999999999996e-01 2.3173163645563050e-01 1.7835515016547365e+01 1.5040892509917299e+01 4 6 0
2598 444 1 4.1499999999999998e-01 1.1052008863915366e+00 1.7818325488556511e+01 1.4649755882332260e+01 4 6 0
973 444 2 -8.2999999999999996e-01 5.8992003570776130e-01 2.0079940359638933e+01 8.6179341038304891e+00 4 -1 0
481 444 2 -8.2999999999999996e-01 1.4491104560313786e+00 1.7207741513905276e+01 9.9152637578628280e+00 2 1 0
483 444 1 4.1499999999999998e-01 5.2521960531138823e-01 1.7038782696465237e+01 1.0099954277041114e+01 2 1 0
2597 444 1 4.1499999999999998e-01 2.1542382516911079e-01 1.8641915414998682e+01 1.5556338265328684e+01 4 6 0
482 444 1 4.1499999999999998e-01 1.5482378228470106e+00 1.8152640369490946e+01 1.0031761954956233e+01 2 1 0
164 444 1 4.1499999999999998e-01 4.8480350426628738e-01 1.9223555349746164e+01 1.7970749539593442e+01 0 6 0
517 444 2 -8.2999999999999996e-01 9.1551996705953798e-01 2.0126043697462993e+01 1.6298168728828543e+01 0 -1 0
165 444 1 4.1499999999999998e-01 4.0023155624627893e-01 1.8782449688305121e+01 1.9416491079547832e+01 0 6 0
519 444 1 4.1499999999999998e-01 1.8245524333678411e+00 2.0425676292539766e+01 1.6287537769635954e+01 0 -1 0
3146 444 4 0.0000000000000000e+00 1.6560500000000000e+00 2.0648199999999999e+01 1.8169999999999999e+00 0 0 0
3163 444 4 -7.4069999999999997e-02 1.6560800000000000e+00 2.2471010000000000e+01 3.5942400000000001e+00 0 0 0
3165 444 4 0.0000000000000000e+00 1.6560500000000000e+00 2.4282000000000000e+01 1.8169999999999999e+00 0 0 0
3174 444 4 0.0000000000000000e+00 1.6560500000000000e+00 2.2465050000000002e+01 0.0000000000000000e+00 0 0 0
2712 444 1 4.1499999999999998e-01 9.0615439676433995e-01 2.2744409056564109e+01 6.6035107207614701e+00 1 -4 0
974 444 1 4.1499999999999998e-01 3.3266674456972130e-02 2.0479732068215352e+01 7.9497001845806698e+00 4 -1 0
975 444 1 4.1499999999999998e-01 1.3733832009262401e+00 2.0629504778268551e+01 8.6378513323314223e+00 4 -1 0
2997 444 1 4.1499999999999998e-01 4.7153580120518496e-01 2.1685751385673885e+01 1.1286473512181928e+01 -1 2 0
2996 444 1 4.1499999999999998e-01 9.0056094979494916e-01 2.2727620807549215e+01 1.2297582189944283e+01 -1 2 0
2995 444 2 -8.2999999999999996e-01 7.2526100260334547e-01 2.2605403923923141e+01 1.1364541557346211e+01 -1 2 0
1385 444 1 4.1499999999999998e-01 6.6975744795236969e-01 2.2902566402395454e+01 1.4929727916609650e+01 -5 4 0
1384 444 2 -8.2999999999999996e-01 1.0808784535801392e+00 2.2619107603567929e+01 1.4113110889019744e+01 -5 4 0
518 444 1 4.1499999999999998e-01 4.4215932072248693e-01 2.0777102298122234e+01 1.5780206733259961e+01 0 -1 0
1047 444 1 4.1499999999999998e-01 2.0074654260499458e+00 2.3118538034112639e+01 8.7692357359567268e+00 -3 -2 0
1045 444 2 -8.2999999999999996e-01 1.5773988005674269e+00 2.3871475198483111e+01 9.1746493339473041e+00 -3 -2 0
1046 444 1 4.1499999999999998e-01 1.1874069230504698e+00 2.3522309276015253e+01 9.9760364830298176e+00 -3 -2 0
1386 444 1 4.1499999999999998e-01 1.8353040755756638e+00 2.2100058151999882e+01 1.4391790119917543e+01 -5 4 0
3180 444 4 0.0000000000000000e+00 1.6560500000000000e+00 2.6098949999999999e+01 0.0000000000000000e+00 0 0 0
3181 444 4 -7.4069999999999997e-02 1.6729900000000000e+00 2.6080459999999999e+01 3.5756199999999998e+00 0 0 0
3183 444 4 0.0000000000000000e+00 1.6560500000000000e+00 2.7915800000000001e+01 1.8169999999999999e+00 0 0 0
1621 444 2 -8.2999999999999996e-01 3.4745532746647018e-01 2.5936033937364531e+01 7.7790713398488807e+00 2 -1 0
998 444 1 4.1499999999999998e-01 1.9243754459694489e+00 2.6545319589119341e+01 7.3309804836526071e+00 0 -3 0
2511 444 1 4.1499999999999998e-01 3.1576572826294369e-01 2.7234391854373541e+01 1.1179312765501390e+01 2 2 0
2576 444 1 4.1499999999999998e-01 8.0860080317451666e-01 2.7812272098744742e+01 1.3431779626439992e+01 3 0 0
2381 444 1 4.1499999999999998e-01 4.8594121552600111e-01 2.7362159684204755e+01 8.9593249368365910e+00 -1 -6 0
2380 444 2 -8.2999999999999996e-01 9.2273939939219418e-01 2.7870733981935761e+01 9.6425467142387244e+00 -1 -6 0
2575 444 2 -8.2999999999999996e-01 1.4431933932669878e+00 2.8018698043141438e+01 1.4118011021896438e+01 3 0 0
1623 444 1 4.1499999999999998e-01 6.7228511691174442e-01 2.5168433276815573e+01 8.2497163374213578e+00 2 -1 0
2972 444 1 4.1499999999999998e-01 1.6877910673717247e-01 2.8033644644359889e+01 1.5248600845125697e+01 3 0 0
2382 444 1 4.1499999999999998e-01 1.6169223412650091e+00 2.8343313360599520e+01 9.1831874984820168e+00 -1 -6 0
2509 444 2 -8.2999999999999996e-01 6.3966481915142970e-03 2.7080706965001394e+01 1.2072008100835429e+01 2 2 0
2510 444 1 4.1499999999999998e-01 7.6417224600008327e-02 2.6133456860726572e+01 1.2190525177103636e+01 2 2 0
2790 444 1 4.1499999999999998e-01 7.1486832496612396e-01 2.5995373830990140e+01 1.8264371506089347e+01 3 2 0
658 444 2 -8.2999999999999996e-01 1.7965113661843799e+00 2.5147043983312624e+01 1.9375221443873343e+01 0 -1 0
3200 444 4 0.0000000000000000e+00 1.6560500000000000e+00 2.9732749999999999e+01 0.0000000000000000e+00 0 0 0
3201 444 4 -7.4069999999999997e-02 1.6946699999999999e+00 2.9766179999999999e+01 3.5758100000000002e+00 0 0 0
3203 444 4 0.0000000000000000e+00 1.6560500000000000e+00 3.1549700000000001e+01 1.8169999999999999e+00 0 0 0
1096 444 2 -8.2999999999999996e-01 1.3448222380563963e+00 2.9453427967659756e+01 7.2389624410209041e+00 1 1 0
176 444 1 4.1499999999999998e-01 2.5077963799757425e-01 3.2092334410285858e+01 7.9998055083054895e+00 0 2 0
177 444 1 4.1499999999999998e-01 3.2182587348919350e-01 3.1131808218825441e+01 6.8317997447378929e+00 0 2 0
1098 444 1 4.1499999999999998e-01 1.6450847437542628e+00 2.8629329870340573e+01 6.8556392782280007e+00 1 1 0
2836 444 2 -8.2999999999999996e-01 1.7074315195367187e+00 3.0862167237826505e+01 1.1964192971911478e+01 3 2 0
2837 444 1 4.1499999999999998e-01 9.0584218729429200e-01 3.0342130897168847e+01 1.1907193313686212e+01 3 2 0
1293 444 1 4.1499999999999998e-01 5.2713748095780188e-01 3.2216441524100638e+01 1.1617583033297793e+01 -1 -1 0
1768 444 2 -8.2999999999999996e-01 1.6609877060737395e+00 3.0426472510996533e+01 1.7806470171671865e+01 0 -4 0
1770 444 1 4.1499999999999998e-01 9.2617680136513614e-01 3.0256793482949661e+01 1.8395956447813447e+01 0 -4 0
1769 444 1 4.1499999999999998e-01 1.8648433215865465e+00 2.9572524448916699e+01 1.7425092261414733e+01 0 -4 0
3050 444 4 0.0000000000000000e+00 3.4729999999999999e+00 6.6205000000000003e-01 1.8169999999999999e+00 0 0 0
3074 444 4 -7.4069999999999997e-02 3.4723199999999999e+00 2.4622700000000002e+00 3.5924800000000001e+00 0 0 0
3075 444 4 0.0000000000000000e+00 3.4729999999999999e+00 2.4790000000000001e+00 0.0000000000000000e+00 0 0 0
1005 444 1 4.1499999999999998e-01 3.0100079571359855e+00 3.9381125911855848e+00 7.1270857117378865e+00 2 3 0
1390 444 2 -8.2999999999999996e-01 2.5779066305636205e+00 2.0795970370897492e+00 6.9058016428791023e+00 2 0 0
1392 444 1 4.1499999999999998e-01 2.8165692449998070e+00 1.1553315550013514e+00 6.9765524237233434e+00 2 0 0
630 444 1 4.1499999999999998e-01 3.6544326796582078e+00 2.1986813263291829e+00 1.1851975195418259e+01 4 3 0
628 444 2 -8.2999999999999996e-01 3.2933053545522948e+00 2.7561661906078188e+00 1.1162751306099944e+01 4 3 0
1862 444 1 4.1499999999999998e-01 3.8170920923694016e+00 1.1621878245435913e+00 1.3241326880659607e+01 0 -6 0
629 444 1 4.1499999999999998e-01 3.9654395565187079e+00 2.7610722637248464e+00 1.0481250434212429e+01 4 3 0
503 444 1 4.1499999999999998e-01 3.6050581540489128e+00 2.5307842877577524e-01 1.0297390707238598e+01 4 2 0
2327 444 1 4.1499999999999998e-01 3.4656221571797641e+00 3.4360200504212270e-02 1.8989159003671290e+01 2 2 0
2270 444 1 4.1499999999999998e-01 3.9639182059748359e+00 3.8225652804455628e+00 1.8878457619749216e+01 -1 0 0
2269 444 2 -8.2999999999999996e-01 3.9665813218506778e+00 4.0058699121734271e+00 1.9817938461663875e+01 -1 0 0
3064 444 4 0.0000000000000000e+00 3.4729999999999999e+00 6.1128000000000000e+00 0.0000000000000000e+00 0 0 0
3065 444 4 -7.4069999999999997e-02 3.4771700000000001e+00 6.1156199999999998e+00 3.5872600000000001e+00 0 0 0
3068 444 4 0.0000000000000000e+00 3.4729999999999999e+00 4.2959500000000004e+00 1.8169999999999999e+00 0 0 0
3088 444 4 0.0000000000000000e+00 3.4729999999999999e+00 7.9297500000000003e+00 1.8169999999999999e+00 0 0 0
1003 444 2 -8.2999999999999996e-01 3.0252940055236404e+00 4.8407718839883387e+00 7.4452121159403832e+00 2 3 0
1370 444 1 4.1499999999999998e-01 3.2952586745003520e+00 7.8918358425513775e+00 6.5982789941075497e+00 2 -1 0
1004 444 1 4.1499999999999998e-01 3.8886214946467175e+00 5.1691468116345964e+00 7.1940798301909927e+00 2 3 0
2524 444 2 -8.2999999999999996e-01 3.9780902999118108e+00 4.6753403675524696e+00 1.4019496688303564e+01 -1 2 0
407 444 1 4.1499999999999998e-01 3.0964217207151998e+00 6.1495417780326473e+00 1.3392365272988462e+01 5 5 0
1969 444 2 -8.2999999999999996e-01 3.0641917614682477e+00 5.2706738906921862e+00 1.0209869006300643e+01 0 2 0
1970 444 1 4.1499999999999998e-01 3.3854172008007524e+00 5.1957356572097391e+00 9.3112974132494717e+00 0 2 0
1971 444 1 4.1499999999999998e-01 2.9876880279649303e+00 4.3661690718129806e+00 1.0513597905219543e+01 0 2 0
408 444 1 4.1499999999999998e-01 2.7471694169897192e+00 6.1306896103306174e+00 1.1919421720020281e+01 5 5 0
406 444 2 -8.2999999999999996e-01 2.5403154620278543e+00 6.5766123702471413e+00 1.2740760220570033e+01 5 5 0
1264 444 2 -8.2999999999999996e-01 3.8210703594381377e+00 6.6145834871468185e+00 1.9784596619171705e+01 5 -2 0
2271 444 1 4.1499999999999998e-01 3.9832814638703566e+00 4.9611605123385214e+00 1.9876015292964549e+01 -1 0 0
1265 444 1 4.1499999999999998e-01 3.2817255648342911e+00 6.4185544859221126e+00 1.9018494421580048e+01 5 -2 0
1184 444 1 4.1499999999999998e-01 3.5676085630133194e+00 7.5297105869567353e+00 1.6886693340434078e+01 5 -2 0
3084 444 4 0.0000000000000000e+00 3.4729999999999999e+00 9.7467000000000006e+00 0.0000000000000000e+00 0 0 0
3085 444 4 -7.4069999999999997e-02 3.4878499999999999e+00 9.7603799999999996e+00 3.5966700000000000e+00 0 0 0
3107 444 4 0.0000000000000000e+00 3.4729999999999999e+00 1.1563549999999999e+01 1.8169999999999999e+00 0 0 0
1371 444 1 4.1499999999999998e-01 4.0743261333070970e+00 9.1884746507498196e+00 6.6589222383997155e+00 2 -1 0
2514 444 1 4.1499999999999998e-01 2.8761015961994350e+00 1.1023472357282893e+01 6.3118676038988504e+00 -3 0 0
2512 444 2 -8.2999999999999996e-01 3.7717533233938378e+00 1.1310955985359380e+01 6.4890513271222572e+00 -3 0 0
2513 444 1 4.1499999999999998e-01 3.7911891719652879e+00 1.2224729622508201e+01 6.2046704775936057e+00 -3 0 0
1462 444 2 -8.2999999999999996e-01 3.4322088434913356e+00 1.1591479109631514e+01 9.1403546737456249e+00 -1 3 0
1464 444 1 4.1499999999999998e-01 3.4183614678391834e+00 1.1565139660237545e+01 8.1836173216146193e+00 -1 3 0
2052 444 1 4.1499999999999998e-01 2.8726417405388855e+00 9.2886277975528238e+00 1.4821600417840111e+01 4 5 0
2051 444 1 4.1499999999999998e-01 3.8944309127924828e+00 9.6532725217071071e+00 1.3765723372602242e+01 4 5 0
2050 444 2 -8.2999999999999996e-01 3.7626238415708522e+00 9.6239574357883573e+00 1.4713351699862288e+01 4 5 0
780 444 1 4.1499999999999998e-01 3.5799594793549123e+00 9.8335309710813092e+00 1.1400673800839730e+01 2 -4 0
2552 444 1 4.1499999999999998e-01 3.8995368606123284e+00 9.6376481855340472e+00 9.3775908795336402e+00 -5 -1 0
88 444 2 -8.2999999999999996e-01 3.3946581639742055e+00 1.1055243294379830e+01 1.8459866485373109e+01 -3 1 0
89 444 1 4.1499999999999998e-01 3.0222403692992410e+00 1.1135365592876646e+01 1.9337999782029094e+01 -3 1 0
90 444 1 4.1499999999999998e-01 2.6345069036889144e+00 1.0988701203279545e+01 1.7881961257951815e+01 -3 1 0
3125 444 4 0.0000000000000000e+00 3.4729999999999999e+00 1.5197450000000000e+01 1.8169999999999999e+00 0 0 0
3131 444 4 -7.4069999999999997e-02 3.4723199999999999e+00 1.3363770000000001e+01 3.5924800000000001e+00 0 0 0
3132 444 4 0.0000000000000000e+00 3.4729999999999999e+00 1.3380500000000000e+01 0.0000000000000000e+00 0 0 0
1159 444 2 -8.2999999999999996e-01 3.2547394876912423e+00 1.4145837003935629e+01 6.6321986771301304e+00 2 0 0
1160 444 1 4.1499999999999998e-01 2.8358821650058004e+00 1.5006115865192962e+01 6.6055227747439327e+00 2 0 0
2557 444 2 -8.2999999999999996e-01 2.3411720042087327e+00 1.2565288870870367e+01 1.4552719833001792e+01 0 3 0
2977 444 2 -8.2999999999999996e-01 2.5060873048624424e+00 1.5091387854515625e+01 1.3226818481147687e+01 1 0 0
2124 444 1 4.1499999999999998e-01 3.4949275703093732e+00 1.4796372737800894e+01 1.0278217349419583e+01 2 1 0
2559 444 1 4.1499999999999998e-01 3.2882038276853849e+00 1.2623171076313275e+01 1.4426180303139633e+01 0 3 0
2978 444 1 4.1499999999999998e-01 2.6809149670917258e+00 1.5041178850139699e+01 1.2287059763100777e+01 1 0 0
2979 444 1 4.1499999999999998e-01 2.2618549483616657e+00 1.6004634065945400e+01 1.3377031408177405e+01 1 0 0
2178 444 1 4.1499999999999998e-01 2.0649111259880124e+00 1.6013839608648127e+01 1.9673547999076238e+01 5 -2 0
1710 444 1 4.1499999999999998e-01 3.1542507268034843e+00 1.5508001656150755e+01 1.7509158828438395e+01 -8 0 0
1904 444 1 4.1499999999999998e-01 3.2730163273638198e+00 1.3550968307588958e+01 1.7349327931109372e+01 0 4 0
1708 444 2 -8.2999999999999996e-01 2.5282880597982036e+00 1.6231104398139177e+01 1.7470105661404585e+01 -8 0 0
3121 444 4 0.0000000000000000e+00 3.4729999999999999e+00 1.7014299999999999e+01 0.0000000000000000e+00 0 0 0
3122 444 4 -7.4069999999999997e-02 3.4771700000000001e+00 1.7017119999999998e+01 3.5872600000000001e+00 0 0 0
3145 444 4 0.0000000000000000e+00 3.4729999999999999e+00 1.8831250000000001e+01 1.8169999999999999e+00 0 0 0
676 444 2 -8.2999999999999996e-01 3.2867324268474993e+00 1.9761121272613369e+01 6.8684323343928373e+00 0 -2 0
677 444 1 4.1499999999999998e-01 2.9669981771069676e+00 1.8927927307195517e+01 6.5223258069288725e+00 0 -2 0
616 444 2 -8.2999999999999996e-01 2.2411467778346510e+00 1.6846074803700020e+01 6.7903041598657374e+00 -2 2 0
1532 444 1 4.1499999999999998e-01 3.4781068202565937e+00 1.7538746047809489e+01 1.0052470482354986e+01 0 -2 0
987 444 1 4.1499999999999998e-01 3.3328774939351447e+00 1.8168741007410283e+01 1.3526032620108012e+01 1 -3 0
986 444 1 4.1499999999999998e-01 2.9391377755039487e+00 1.8294783770060480e+01 1.4982390242421953e+01 1 -3 0
2321 444 1 4.1499999999999998e-01 3.6503947568774531e+00 2.0237444232132376e+01 9.7232833441826685e+00 0 -3 0
985 444 2 -8.2999999999999996e-01 2.7587072098561221e+00 1.7788077066154653e+01 1.4190604263261301e+01 1 -3 0
2018 444 1 4.1499999999999998e-01 4.0333316653027058e+00 1.9437586424081843e+01 1.9295989138270397e+01 1 0 0
2986 444 2 -8.2999999999999996e-01 3.8077809475738684e+00 1.8820089411985759e+01 1.6461398579724442e+01 -2 0 0
2988 444 1 4.1499999999999998e-01 3.3912983375186596e+00 1.8836377544848116e+01 1.7323088558581130e+01 -2 0 0
2017 444 2 -8.2999999999999996e-01 3.2496159300233329e+00 1.9846877976339233e+01 1.8929243188539118e+01 1 0 0
3141 444 4 0.0000000000000000e+00 3.4729999999999999e+00 2.0648199999999999e+01 0.0000000000000000e+00 0 0 0
3142 444 4 -7.4069999999999997e-02 3.4878499999999999e+00 2.0661880000000000e+01 3.5966700000000000e+00 0 0 0
3164 444 4 0.0000000000000000e+00 3.4729999999999999e+00 2.2465050000000002e+01 1.8169999999999999e+00 0 0 0
3188 444 4 -7.4069999999999997e-02 3.4723199999999999e+00 2.4265270000000001e+01 3.5924800000000001e+00 0 0 0
3189 444 4 0.0000000000000000e+00 3.4729999999999999e+00 2.4282000000000000e+01 0.0000000000000000e+00 0 0 0
1724 444 1 4.1499999999999998e-01 2.8693298315409534e+00 2.1627448131181158e+01 6.4044254886577434e+00 2 1 0
1725 444 1 4.1499999999999998e-01 3.4645067180311879e+00 2.3004896292456973e+01 6.2036855477722073e+00 2 1 0
1723 444 2 -8.2999999999999996e-01 2.6863383710801472e+00 2.2557681771102011e+01 6.5363796521670281e+00 2 1 0
2320 444 2 -8.2999999999999996e-01 3.3606475508924420e+00 2.1012357369412083e+01 9.2418392127020628e+00 0 -3 0
632 444 1 4.1499999999999998e-01 3.4328450479111923e+00 2.4047606013435939e+01 1.4222164158812998e+01 -4 0 0
1800 444 1 4.1499999999999998e-01 4.0227723970267446e+00 2.1762906043960754e+01 1.5472700478553236e+01 -2 -6 0
1798 444 2 -8.2999999999999996e-01 3.2445044323431422e+00 2.1536016180858070e+01 1.5981671901512149e+01 -2 -6 0
2322 444 1 4.1499999999999998e-01 3.3210187272572025e+00 2.0726880845013948e+01 8.3290599711405271e+00 0 -3 0
1799 444 1 4.1499999999999998e-01 3.5194589328844192e+00 2.1627017145978495e+01 1.6894004466260906e+01 -2 -6 0
659 444 1 4.1499999999999998e-01 2.1982995487266654e+00 2.4440669745224270e+01 1.9881022832095216e+01 0 -1 0
2019 444 1 4.1499999999999998e-01 2.9828741857914118e+00 2.0487842491617755e+01 1.9588216295852110e+01 1 0 0
3178 444 4 0.0000000000000000e+00 3.4729999999999999e+00 2.7915800000000001e+01 0.0000000000000000e+00 0 0 0
3179 444 4 -7.4069999999999997e-02 3.4771700000000001e+00 2.7918620000000001e+01 3.5872600000000001e+00 0 0 0
3182 444 4 0.0000000000000000e+00 3.4729999999999999e+00 2.6098949999999999e+01 1.8169999999999999e+00 0 0 0
999 444 1 4.1499999999999998e-01 2.8989840625411225e+00 2.6248915337333543e+01 6.2110796507614863e+00 0 -3 0
997 444 2 -8.2999999999999996e-01 2.6811850328223370e+00 2.6907750755331961e+01 6.8704212531121511e+00 0 -3 0
1632 444 1 4.1499999999999998e-01 3.5359353524561814e+00 2.7478295262472404e+01 1.1937973141095336e+01 3 1 0
1630 444 2 -8.2999999999999996e-01 3.9315531720451080e+00 2.8183991581674153e+01 1.2449550226532963e+01 3 1 0
452 444 1 4.1499999999999998e-01 2.4463665819046980e+00 2.5488792155541578e+01 1.0871247221025603e+01 1 3 0
451 444 2 -8.2999999999999996e-01 3.1487541534886532e+00 2.5942127365194612e+01 1.1337477641222089e+01 1 3 0
2577 444 1 4.1499999999999998e-01 2.2199790354699549e+00 2.8316800144448926e+01 1.3644754849140856e+01 3 0 0
633 444 1 4.1499999999999998e-01 3.1321830791585930e+00 2.5421754767683474e+01 1.3662509879914788e+01 -4 0 0
453 444 1 4.1499999999999998e-01 3.8758761876012491e+00 2.5962155789815224e+01 1.0715284284986829e+01 1 3 0
631 444 2 -8.2999999999999996e-01 3.3353681544499718e+00 2.4964650659419441e+01 1.4478600898968233e+01 -4 0 0
2595 444 1 4.1499999999999998e-01 3.8505757453314486e+00 2.5145700505450659e+01 1.7357847932513465e+01 3 5 0
2811 444 1 4.1499999999999998e-01 3.3464584102925210e+00 2.8145010883477322e+01 1.6135879492533029e+01 -5 3 0
2810 444 1 4.1499999999999998e-01 2.7483854359709126e+00 2.7548380558683821e+01 1.7392158230883688e+01 -5 3 0
2809 444 2 -8.2999999999999996e-01 3.0220051635889931e+00 2.8380025231112626e+01 1.7005206975305157e+01 -5 3 0
2594 444 1 4.1499999999999998e-01 3.1163412797833829e+00 2.5397610780164595e+01 1.6058103274709985e+01 3 5 0
660 444 1 4.1499999999999998e-01 2.3268214250972612e+00 2.5204787063444336e+01 1.8580444883286290e+01 0 -1 0
2593 444 2 -8.2999999999999996e-01 3.1068339666921001e+00 2.5621877595854208e+01 1.6988611679730003e+01 3 5 0
3198 444 4 0.0000000000000000e+00 3.4729999999999999e+00 3.1549700000000001e+01 0.0000000000000000e+00 0 0 0
3199 444 4 -7.4069999999999997e-02 3.4878499999999999e+00 3.1563379999999999e+01 3.5966700000000000e+00 0 0 0
3202 444 4 0.0000000000000000e+00 3.4729999999999999e+00 2.9732749999999999e+01 1.8169999999999999e+00 0 0 0
1097 444 1 4.1499999999999998e-01 2.1325211594353197e+00 2.9994720910578632e+01 7.2915387460821286e+00 1 1 0
922 444 2 -8.2999999999999996e-01 3.7429469376002418e+00 3.0488478548067096e+01 7.4442400984898249e+00 1 -4 0
895 444 2 -8.2999999999999996e-01 3.5800027113682407e+00 2.9902115155864873e+01 1.0262669843018625e+01 -2 -2 0
2206 444 2 -8.2999999999999996e-01 3.7586443650040193e+00 3.0793887469897882e+01 1.3783541851809872e+01 -3 0 0
502 444 2 -8.2999999999999996e-01 3.3561026187159655e+00 3.2704312827696022e+01 9.4085090699678151e+00 4 1 0