LAMMPS data file via write_data, version 11 Aug 2017, timestep = 1000000

3534 atoms
9 atom types
2024 bonds
5 bond types
1018 angles
5 angle types
12 dihedrals
4 dihedral types
9 impropers
1 improper types

0.0000000000000000e+00 3.2704500000000003e+01 xlo xhi
0.0000000000000000e+00 3.2704500000000003e+01 ylo yhi
0.0000000000000000e+00 8.0000000000000000e+01 zlo zhi

Masses

1 1.0079
2 15.9994
3 39.0983
4 63.546
5 12.011
6 15.9994
7 15.9994
8 15.9994
9 1.0079

Bond Coeffs # harmonic

1 450 0.9572
2 570 1.229
3 450 1.364
4 570 1.229
5 553 0.945

Angle Coeffs # harmonic

1 100 123.32
2 85 124
3 55 104.52
4 35 113
5 100 123.32

Dihedral Coeffs # charmm

1 0.922 1 180 0
2 3.741 2 0 0
3 0.922 1 0 0
4 3.741 2 180 0

Improper Coeffs # umbrella

1 21 0

Atoms # full

3049 444 4 -7.4069999999999997e-02 1.6594700000000000e+00 6.5920999999999996e-01 3.5753400000000002e+00 0 0 0
3050 444 4 0.0000000000000000e+00 3.4729999999999999e+00 6.6205000000000003e-01 1.8169999999999999e+00 0 0 0
3051 444 4 0.0000000000000000e+00 1.6560500000000000e+00 2.4790000000000001e+00 1.8169999999999999e+00 0 0 0
3054 444 4 0.0000000000000000e+00 5.2898399999999999e+00 6.6205000000000003e-01 0.0000000000000000e+00 0 0 0
3055 444 4 -7.4069999999999997e-02 5.2859600000000002e+00 6.6298000000000001e-01 3.5751400000000002e+00 0 0 0
3057 444 4 0.0000000000000000e+00 5.2898399999999999e+00 2.4790000000000001e+00 1.8169999999999999e+00 0 0 0
3060 444 4 0.0000000000000000e+00 1.6560500000000000e+00 6.6205000000000003e-01 0.0000000000000000e+00 0 0 0
3064 444 4 0.0000000000000000e+00 3.4729999999999999e+00 6.1128000000000000e+00 0.0000000000000000e+00 0 0 0
3065 444 4 -7.4069999999999997e-02 3.4735499999999999e+00 6.1125299999999996e+00 3.5709300000000002e+00 0 0 0
3066 444 4 0.0000000000000000e+00 1.6560500000000000e+00 4.2959500000000004e+00 0.0000000000000000e+00 0 0 0
3067 444 4 -7.4069999999999997e-02 1.6457500000000000e+00 4.3038999999999996e+00 3.5737800000000002e+00 0 0 0
3068 444 4 0.0000000000000000e+00 3.4729999999999999e+00 4.2959500000000004e+00 1.8169999999999999e+00 0 0 0
3069 444 4 0.0000000000000000e+00 1.6560500000000000e+00 6.1128000000000000e+00 1.8169999999999999e+00 0 0 0
3074 444 4 -7.4069999999999997e-02 3.4738799999999999e+00 2.4762200000000001e+00 3.5753400000000002e+00 0 0 0
3075 444 4 0.0000000000000000e+00 3.4729999999999999e+00 2.4790000000000001e+00 0.0000000000000000e+00 0 0 0
3076 444 4 0.0000000000000000e+00 5.2898399999999999e+00 4.2959500000000004e+00 0.0000000000000000e+00 0 0 0
3077 444 4 0.0000000000000000e+00 5.2898399999999999e+00 6.1128000000000000e+00 1.8169999999999999e+00 0 0 0
3086 444 4 0.0000000000000000e+00 1.6560500000000000e+00 7.9297500000000003e+00 0.0000000000000000e+00 0 0 0
3087 444 4 -7.4069999999999997e-02 1.6436400000000000e+00 7.9178800000000003e+00 3.5731700000000002e+00 0 0 0
3088 444 4 0.0000000000000000e+00 3.4729999999999999e+00 7.9297500000000003e+00 1.8169999999999999e+00 0 0 0
3092 444 4 0.0000000000000000e+00 5.2898399999999999e+00 7.9297500000000003e+00 0.0000000000000000e+00 0 0 0
3093 444 4 -7.4069999999999997e-02 5.3014200000000002e+00 7.9199799999999998e+00 3.5736800000000000e+00 0 0 0
3101 444 4 -7.4069999999999997e-02 5.3039500000000004e+00 4.3090400000000004e+00 3.5747000000000000e+00 0 0 0
1054 444 2 -8.2999999999999996e-01 1.3758288136884076e+00 6.1925846131476385e+00 7.0997657586478455e+00 2 7 0
860 444 1 4.1499999999999998e-01 2.0811237258561510e+00 4.3183597850724587e+00 7.0261194560720597e+00 4 1 0
1056 444 1 4.1499999999999998e-01 1.1651910198680404e+00 6.3908884401876804e+00 6.1873294596729593e+00 2 7 0
2549 444 1 4.1499999999999998e-01 2.4541916642148371e+00 1.9838796829491512e+00 7.7886656698736010e+00 5 4 0
2040 444 1 4.1499999999999998e-01 4.7147066843383056e+00 1.9129081044241627e+00 6.9937277080504847e+00 2 1 0
1055 444 1 4.1499999999999998e-01 6.9465417079658487e-01 6.6361878939374881e+00 7.6051865496514397e+00 2 7 0
3018 444 1 4.1499999999999998e-01 5.7589025578949216e-01 3.0880027601817579e+00 6.6708090666156705e+00 -1 -3 0
859 444 2 -8.2999999999999996e-01 2.3123905490582599e+00 3.3913785491199113e+00 6.9673459806178819e+00 4 1 0
2 444 1 4.1499999999999998e-01 4.3569214200778834e+00 7.3632976731477990e+00 6.3427870896986409e+00 -4 2 0
3 444 1 4.1499999999999998e-01 3.1447811652662945e+00 6.7861261310959549e+00 7.0424190855141342e+00 -4 2 0
861 444 1 4.1499999999999998e-01 2.9227150511490714e+00 3.3424842059643081e+00 6.2315840380023220e+00 4 1 0
1 444 2 -8.2999999999999996e-01 4.1017267023864488e+00 6.7641173324547381e+00 7.0442788228105009e+00 -4 2 0
1767 444 1 4.1499999999999998e-01 1.6204989273343127e+00 5.4515097658195559e+00 1.0382285337978457e+01 3 0 0
2550 444 1 4.1499999999999998e-01 3.2633046314380176e+00 9.0430064392493970e-01 8.4755022515087255e+00 5 4 0
2548 444 2 -8.2999999999999996e-01 2.3781882806555608e+00 1.2635719130583232e+00 8.4144559721302130e+00 5 4 0
1919 444 1 4.1499999999999998e-01 5.4456203771111742e+00 2.0560719080835704e-01 8.1906614277685890e+00 4 -2 0
3043 444 9 3.5999999999999999e-01 1.3652295872867566e+00 4.2763667982739895e+00 1.4149743171227357e+01 -2 0 0
996 444 1 4.1499999999999998e-01 2.2864120980003708e+00 9.7767508908670275e-01 1.1827682099010921e+01 -4 -3 0
255 444 1 4.1499999999999998e-01 4.0209999809746115e+00 5.0357694067780061e+00 1.4249748552247421e+01 0 -5 0
1766 444 1 4.1499999999999998e-01 3.0210256502938853e+00 5.0079611793227592e+00 1.0747914792411070e+01 3 0 0
1552 444 2 -8.2999999999999996e-01 5.1003612460401095e+00 5.9021676571591657e+00 9.4311337606759018e+00 -2 -3 0
1356 444 1 4.1499999999999998e-01 4.9997887667196173e+00 4.2036748692656478e-01 1.3511945528354683e+01 6 -4 0
968 444 1 4.1499999999999998e-01 2.1351023921340433e+00 6.6945192206758080e+00 1.3816600706948865e+01 7 -3 0
1765 444 2 -8.2999999999999996e-01 2.0997718952762687e+00 4.8569901017200383e+00 1.0959412700247965e+01 3 0 0
969 444 1 4.1499999999999998e-01 2.2449229574309890e+00 7.6886986495764420e+00 1.2680184310310842e+01 7 -3 0
2694 444 1 4.1499999999999998e-01 1.4471522323686152e+00 7.8823044223580645e+00 9.7794281403368277e+00 5 1 0
994 444 2 -8.2999999999999996e-01 2.6685564109777236e+00 4.3022127171566898e-01 1.2513606511589041e+01 -4 -3 0
1554 444 1 4.1499999999999998e-01 4.9202285932343921e+00 6.1368941454455692e+00 8.5208103734621474e+00 -2 -3 0
253 444 2 -8.2999999999999996e-01 3.2718212733548411e+00 5.1124636981787939e+00 1.4840579431340959e+01 0 -5 0
967 444 2 -8.2999999999999996e-01 1.7015017476568031e+00 7.4569654890854427e+00 1.3433327772918368e+01 7 -3 0
254 444 1 4.1499999999999998e-01 3.1711889008663685e+00 4.2374528675546035e+00 1.5215360886842898e+01 0 -5 0
72 444 1 4.1499999999999998e-01 4.1986068088173516e+00 7.6039583891924618e+00 1.1417095711644311e+01 1 2 0
70 444 2 -8.2999999999999996e-01 3.2888813833500286e+00 7.9015886627108340e+00 1.1410125299315784e+01 1 2 0
2799 444 1 4.1499999999999998e-01 1.4964952479442484e+00 3.0461540984760278e+00 1.0970265607440327e+01 2 -2 0
2798 444 1 4.1499999999999998e-01 5.9948178230140847e-01 2.4586253417735713e+00 9.9015877039027451e+00 2 -2 0
2797 444 2 -8.2999999999999996e-01 8.1447249205655303e-01 2.3889747432876614e+00 1.0831727552153517e+01 2 -2 0
817 444 2 -8.2999999999999996e-01 1.3010497451661167e+00 5.3632156880053472e-01 1.5132220707875616e+01 0 -5 0
2004 444 1 4.1499999999999998e-01 2.0170008536237751e+00 1.9591582721961018e+00 1.5839622730210676e+01 -1 2 0
3042 444 8 -7.8000000000000003e-01 4.2570408963160361e-01 4.0564196008290176e+00 1.4118077452096173e+01 -2 0 0
1918 444 2 -8.2999999999999996e-01 4.5836641908038107e+00 2.7483940514526978e-02 8.5668735578772246e+00 4 -2 0
2693 444 1 4.1499999999999998e-01 4.1512745125123304e-02 7.5242717744990752e+00 9.3459696964865895e+00 5 1 0
1553 444 1 4.1499999999999998e-01 5.1848190303772776e+00 4.9487555245717756e+00 9.4209294330033124e+00 -2 -3 0
2692 444 2 -8.2999999999999996e-01 6.8052365650938773e-01 7.3730354207274305e+00 1.0042407022936567e+01 5 1 0
1379 444 1 4.1499999999999998e-01 5.3310899148575981e+00 5.1052351367410775e-01 1.0072003549386942e+01 3 -2 0
819 444 1 4.1499999999999998e-01 1.6075599055337786e+00 1.6878944757579006e-01 1.4303242693488471e+01 0 -5 0
1759 444 2 -8.2999999999999996e-01 5.3570161637796421e+00 7.8951424846228457e+00 1.9949812255890844e+01 2 -2 0
1065 444 1 4.1499999999999998e-01 2.0643909358277432e+00 3.4202291701380932e-01 1.9680068153963187e+01 0 4 0
2652 444 1 4.1499999999999998e-01 4.6200742834840110e-02 2.5374838975402012e+00 1.7776583597438748e+01 3 5 0
2002 444 2 -8.2999999999999996e-01 2.5873441020323407e+00 2.7014848320637910e+00 1.6039356205363184e+01 -1 2 0
497 444 1 4.1499999999999998e-01 2.7244040693760292e+00 5.7586833435566467e+00 1.6376838158992449e+01 3 1 0
213 444 1 4.1499999999999998e-01 4.9676847877107058e+00 1.0159540255219925e+00 1.6038305289617426e+01 -4 -3 0
496 444 2 -8.2999999999999996e-01 2.4609023741594287e+00 6.1109232568960374e+00 1.7226971308208405e+01 3 1 0
1991 444 1 4.1499999999999998e-01 1.7578260742060026e+00 4.0729758433810419e+00 1.9030564985490415e+01 4 -4 0
1990 444 2 -8.2999999999999996e-01 2.6581855425826277e+00 3.9769477403417972e+00 1.8720140484177826e+01 4 -4 0
212 444 1 4.1499999999999998e-01 4.4623253745221749e+00 2.4317370996724885e+00 1.6217373796919947e+01 -4 -3 0
1992 444 1 4.1499999999999998e-01 2.8973873310807550e+00 4.8483256106987884e+00 1.8404363664636278e+01 4 -4 0
957 444 1 4.1499999999999998e-01 3.3796402050580956e+00 2.6568939702960117e+00 1.9481337069759451e+01 0 0 0
955 444 2 -8.2999999999999996e-01 3.5549017327226395e+00 1.7872550710983763e+00 1.9840841911467560e+01 0 0 0
956 444 1 4.1499999999999998e-01 4.4914330659305977e+00 1.6521145786234726e+00 1.9696349223446454e+01 0 0 0
2003 444 1 4.1499999999999998e-01 2.3208343342250206e+00 2.9799587663029099e+00 1.6915516742014237e+01 -1 2 0
211 444 2 -8.2999999999999996e-01 5.2583450671619669e+00 1.9015641907285115e+00 1.6256119976699324e+01 -4 -3 0
45 444 1 4.1499999999999998e-01 5.1641704782084696e+00 7.0253603840645846e+00 1.6427830737548327e+01 -1 1 0
2650 444 2 -8.2999999999999996e-01 7.8677357121804847e-02 1.9429175420601661e+00 1.8526029208634299e+01 3 5 0
498 444 1 4.1499999999999998e-01 1.7714344777597950e+00 6.7424160260876160e+00 1.7021830416226152e+01 3 1 0
2448 444 1 4.1499999999999998e-01 2.0112511107960906e+00 7.5450113462930233e+00 1.9265781256967649e+01 4 -1 0
1760 444 1 4.1499999999999998e-01 5.1980661526244729e+00 7.6174643657604291e+00 1.9047668927575391e+01 2 -2 0
3084 444 4 0.0000000000000000e+00 3.4729999999999999e+00 9.7467000000000006e+00 0.0000000000000000e+00 0 0 0
3085 444 4 -7.4069999999999997e-02 3.4708899999999998e+00 9.7495600000000007e+00 3.5749200000000001e+00 0 0 0
3089 444 4 0.0000000000000000e+00 1.6560500000000000e+00 9.7467000000000006e+00 1.8169999999999999e+00 0 0 0
3095 444 4 0.0000000000000000e+00 5.2898399999999999e+00 9.7467000000000006e+00 1.8169999999999999e+00 0 0 0
3103 444 4 -7.4069999999999997e-02 1.6594700000000000e+00 1.1560710000000000e+01 3.5753400000000002e+00 0 0 0
3104 444 4 0.0000000000000000e+00 3.4729999999999999e+00 1.1563549999999999e+01 1.8169999999999999e+00 0 0 0
3105 444 4 0.0000000000000000e+00 1.6560500000000000e+00 1.3380500000000000e+01 1.8169999999999999e+00 0 0 0
3108 444 4 0.0000000000000000e+00 5.2898399999999999e+00 1.1563549999999999e+01 0.0000000000000000e+00 0 0 0
3109 444 4 -7.4069999999999997e-02 5.2859600000000002e+00 1.1564480000000000e+01 3.5751400000000002e+00 0 0 0
3111 444 4 0.0000000000000000e+00 5.2898399999999999e+00 1.3380500000000000e+01 1.8169999999999999e+00 0 0 0
3114 444 4 0.0000000000000000e+00 1.6560500000000000e+00 1.1563549999999999e+01 0.0000000000000000e+00 0 0 0
3120 444 4 0.0000000000000000e+00 1.6560500000000000e+00 1.5197450000000000e+01 0.0000000000000000e+00 0 0 0
3121 444 4 -7.4069999999999997e-02 1.6457500000000000e+00 1.5205399999999999e+01 3.5737800000000002e+00 0 0 0
3122 444 4 0.0000000000000000e+00 3.4729999999999999e+00 1.5197450000000000e+01 1.8169999999999999e+00 0 0 0
3128 444 4 -7.4069999999999997e-02 3.4738799999999999e+00 1.3377720000000000e+01 3.5753400000000002e+00 0 0 0
3129 444 4 0.0000000000000000e+00 3.4729999999999999e+00 1.3380500000000000e+01 0.0000000000000000e+00 0 0 0
3130 444 4 0.0000000000000000e+00 5.2898399999999999e+00 1.5197450000000000e+01 0.0000000000000000e+00 0 0 0
3155 444 4 -7.4069999999999997e-02 5.3039500000000004e+00 1.5210540000000000e+01 3.5747000000000000e+00 0 0 0
618 444 1 4.1499999999999998e-01 1.8261162026961348e+00 9.5148937618916651e+00 6.1810602235279086e+00 3 1 0
1276 444 2 -8.2999999999999996e-01 6.7567095427108448e-01 1.2835642759876553e+01 7.5315517993486321e+00 0 1 0
617 444 1 4.1499999999999998e-01 1.7361249056519288e+00 1.0882111506852354e+01 6.8248869087475112e+00 3 1 0
616 444 2 -8.2999999999999996e-01 1.5202718666102513e+00 9.9610477596466520e+00 6.9707678084763485e+00 3 1 0
1651 444 2 -8.2999999999999996e-01 3.5064937554621309e+00 1.4461765808230036e+01 6.7595586890279966e+00 -4 -6 0
1652 444 1 4.1499999999999998e-01 3.4090012257093054e+00 1.4990425252136243e+01 7.5515475931196177e+00 -4 -6 0
477 444 1 4.1499999999999998e-01 4.0244962018109893e+00 1.1186295366706050e+01 6.3372305546829226e+00 4 -3 0
1653 444 1 4.1499999999999998e-01 2.9368072628589541e+00 1.4884714197791824e+01 6.1170604570756764e+00 -4 -6 0
706 444 2 -8.2999999999999996e-01 7.0446172809492758e-01 1.5529660260822817e+01 6.7031539612268700e+00 -5 1 0
475 444 2 -8.2999999999999996e-01 4.3296087254079572e+00 1.1670470266677537e+01 7.1045069757514927e+00 4 -3 0
476 444 1 4.1499999999999998e-01 4.1336374957106257e+00 1.2585745696715053e+01 6.9042601973131594e+00 4 -3 0
708 444 1 4.1499999999999998e-01 3.8392406502890009e-01 1.6272678049669775e+01 6.1918688251561171e+00 -5 1 0
707 444 1 4.1499999999999998e-01 1.1863639653989111e-01 1.4808785319486013e+01 6.4721123131224951e+00 -5 1 0
1277 444 1 4.1499999999999998e-01 9.8034181154743250e-01 1.3611877772394800e+01 8.0015166115422272e+00 0 1 0
675 444 1 4.1499999999999998e-01 1.4652010687977621e+00 1.1091278309511026e+01 1.4430432113679858e+01 0 1 0
568 444 2 -8.2999999999999996e-01 3.7807658198302594e+00 9.4647423876794186e+00 1.5149021378655647e+01 -3 8 0
673 444 2 -8.2999999999999996e-01 1.1045039741248170e+00 1.0306952254958510e+01 1.4843908185960091e+01 0 1 0
2568 444 1 4.1499999999999998e-01 7.2207940122085779e-01 1.1945757613926943e+01 1.1517290655232742e+01 -2 3 0
1382 444 1 4.1499999999999998e-01 3.7603666579743646e+00 1.1878137710507948e+01 1.3068800966902613e+01 2 -4 0
1381 444 2 -8.2999999999999996e-01 2.9533541420443266e+00 1.1745770902656448e+01 1.3566237321447531e+01 2 -4 0
430 444 2 -8.2999999999999996e-01 2.8836510701031082e+00 1.3316592241142164e+01 9.8425500957438405e+00 -2 -5 0
432 444 1 4.1499999999999998e-01 3.0185973508212713e+00 1.2637938534034074e+01 9.1811493861841438e+00 -2 -5 0
431 444 1 4.1499999999999998e-01 2.0873727089826861e+00 1.3049340545835308e+01 1.0301624738713743e+01 -2 -5 0
1383 444 1 4.1499999999999998e-01 2.3023437536946907e+00 1.1503903072863466e+01 1.2907512515918979e+01 2 -4 0
2566 444 2 -8.2999999999999996e-01 1.1144402247849090e+00 1.1089777237840693e+01 1.1689290755841931e+01 -2 3 0
2567 444 1 4.1499999999999998e-01 1.5626064641540136e+00 1.0863102314148570e+01 1.0874429003558648e+01 -2 3 0
712 444 2 -8.2999999999999996e-01 2.3280792343968542e+00 1.0098556948874165e+01 9.5195374865692504e+00 -1 0 0
924 444 1 4.1499999999999998e-01 4.2843152863149998e-03 8.2353517931595146e+00 1.2041381684303625e+01 0 -3 0
2500 444 2 -8.2999999999999996e-01 7.2702428637923988e-01 1.6307867999926401e+01 1.0122192747976074e+01 2 0 0
1819 444 2 -8.2999999999999996e-01 1.0502100244991832e+00 1.3601047473420078e+01 1.4192514876447214e+01 -4 2 0
1821 444 1 4.1499999999999998e-01 5.0151803193028766e-01 1.3882583158987982e+01 1.3460458390797580e+01 -4 2 0
1820 444 1 4.1499999999999998e-01 1.8879513409178792e+00 1.3371744607365528e+01 1.3790218956984866e+01 -4 2 0
674 444 1 4.1499999999999998e-01 4.9974166044622570e-01 1.0641348516482029e+01 1.5506232618317496e+01 0 1 0
2515 444 2 -8.2999999999999996e-01 5.1919244346355975e-01 1.3766914121823200e+01 1.0922262629257759e+01 0 0 0
570 444 1 4.1499999999999998e-01 3.1759405180446030e+00 9.9164937144031420e+00 1.4560514887998799e+01 -3 8 0
714 444 1 4.1499999999999998e-01 1.9576095028617992e+00 9.8828477455853090e+00 8.6637019768116428e+00 -1 0 0
713 444 1 4.1499999999999998e-01 3.2712080746479750e+00 1.0154028567680232e+01 9.3657103969447810e+00 -1 0 0
1417 444 2 -8.2999999999999996e-01 5.0900076620646004e+00 9.6509716682564815e+00 9.3219968251386014e+00 -1 -3 0
2517 444 1 4.1499999999999998e-01 8.8282768124193356e-01 1.4599220841939003e+01 1.0620158627474291e+01 0 0 0
2895 444 1 4.1499999999999998e-01 3.8942944981085841e+00 1.4838876679341599e+01 1.0447110813980666e+01 0 3 0
2072 444 1 4.1499999999999998e-01 5.3579247084997821e+00 1.2112152731000698e+01 1.1329674950023968e+01 -4 -2 0
2893 444 2 -8.2999999999999996e-01 4.4006442347662524e+00 1.5620952136419751e+01 1.0666655418154789e+01 0 3 0
2592 444 1 4.1499999999999998e-01 4.0835713009067600e+00 1.5121739947120130e+01 1.2456089745037016e+01 -4 -2 0
569 444 1 4.1499999999999998e-01 4.5983059818859653e+00 9.4066635620668411e+00 1.4654564245580367e+01 -3 8 0
2591 444 1 4.1499999999999998e-01 4.7014463227389749e+00 1.5300190196895208e+01 1.3826594070596379e+01 -4 -2 0
2590 444 2 -8.2999999999999996e-01 3.8652414961591082e+00 1.5143823255171005e+01 1.3387796329839391e+01 -4 -2 0
2071 444 2 -8.2999999999999996e-01 5.2501436056263451e+00 1.2028860363148164e+01 1.2277134482533809e+01 -4 -2 0
923 444 1 4.1499999999999998e-01 3.3970371156020007e-01 9.7103249065711879e+00 1.2103376871264643e+01 0 -3 0
2894 444 1 4.1499999999999998e-01 5.1487697558635830e+00 1.5597803731431069e+01 1.0069994354967276e+01 0 3 0
71 444 1 4.1499999999999998e-01 3.3229621370008675e+00 8.7680799901541135e+00 1.1004830485550119e+01 1 2 0
2027 444 1 4.1499999999999998e-01 1.4848684339600473e+00 9.0398305733087660e+00 1.6548070179895628e+01 0 -3 0
3026 444 3 1.0000000000000000e+00 5.3035229501835506e+00 9.9308473512582633e+00 1.7394199541598148e+01 -3 -4 0
2446 444 2 -8.2999999999999996e-01 1.7998052895944803e+00 8.4545792425470783e+00 1.9476040533203605e+01 4 -1 0
2087 444 1 4.1499999999999998e-01 1.0986927460210341e+00 1.4121335346523978e+01 1.6042767966645506e+01 1 1 0
2862 444 1 4.1499999999999998e-01 2.7152512227401400e+00 1.5343757429755943e+01 1.8129370072157368e+01 1 3 0
2028 444 1 4.1499999999999998e-01 1.0414445659214535e+00 8.5059636402660992e+00 1.7893528259869615e+01 0 -3 0
2088 444 1 4.1499999999999998e-01 8.5809406222317153e-01 1.3403085880977926e+01 1.7353540938702764e+01 1 1 0
897 444 1 4.1499999999999998e-01 3.4966570430745975e-01 1.1721607537306957e+01 1.8641497074700183e+01 3 0 0
366 444 1 4.1499999999999998e-01 2.9824933558141202e+00 1.0728820513736686e+01 1.9326555569687706e+01 2 0 0
364 444 2 -8.2999999999999996e-01 3.2515325137005289e+00 1.1172458547520080e+01 1.8522170484219060e+01 2 0 0
2086 444 2 -8.2999999999999996e-01 1.3435037028566732e+00 1.4132482604426416e+01 1.6968065794719262e+01 1 1 0
365 444 1 4.1499999999999998e-01 2.4502664014887312e+00 1.1580003149490889e+01 1.8193366217535971e+01 2 0 0
896 444 1 4.1499999999999998e-01 1.2140662201089665e-01 1.0755446613857067e+01 1.7498550793115076e+01 3 0 0
895 444 2 -8.2999999999999996e-01 4.2164760509593241e-01 1.1643910251137028e+01 1.7690174777272833e+01 3 0 0
2860 444 2 -8.2999999999999996e-01 2.6748436918677756e+00 1.5834870813044736e+01 1.8949984168203844e+01 1 3 0
2261 444 1 4.1499999999999998e-01 1.1106996331371337e+00 1.5084691664638822e+01 1.9446958630909634e+01 -1 2 0
2026 444 2 -8.2999999999999996e-01 8.1898106892868117e-01 8.4912450619535491e+00 1.6962654449446347e+01 0 -3 0
2260 444 2 -8.2999999999999996e-01 2.8754222520778594e-01 1.4817674774923841e+01 1.9856039120807910e+01 -1 2 0
3118 444 4 0.0000000000000000e+00 3.4729999999999999e+00 1.7014299999999999e+01 0.0000000000000000e+00 0 0 0
3119 444 4 -7.4069999999999997e-02 3.4735499999999999e+00 1.7014030000000002e+01 3.5709300000000002e+00 0 0 0
3123 444 4 0.0000000000000000e+00 1.6560500000000000e+00 1.7014299999999999e+01 1.8169999999999999e+00 0 0 0
3131 444 4 0.0000000000000000e+00 5.2898399999999999e+00 1.7014299999999999e+01 1.8169999999999999e+00 0 0 0
3138 444 4 0.0000000000000000e+00 3.4729999999999999e+00 2.0648199999999999e+01 0.0000000000000000e+00 0 0 0
3139 444 4 -7.4069999999999997e-02 3.4708899999999998e+00 2.0651060000000001e+01 3.5749200000000001e+00 0 0 0
3140 444 4 0.0000000000000000e+00 1.6560500000000000e+00 1.8831250000000001e+01 0.0000000000000000e+00 0 0 0
3141 444 4 -7.4069999999999997e-02 1.6436400000000000e+00 1.8819379999999999e+01 3.5731700000000002e+00 0 0 0
3142 444 4 0.0000000000000000e+00 3.4729999999999999e+00 1.8831250000000001e+01 1.8169999999999999e+00 0 0 0
3143 444 4 0.0000000000000000e+00 1.6560500000000000e+00 2.0648199999999999e+01 1.8169999999999999e+00 0 0 0
3146 444 4 0.0000000000000000e+00 5.2898399999999999e+00 1.8831250000000001e+01 0.0000000000000000e+00 0 0 0
3147 444 4 -7.4069999999999997e-02 5.3014200000000002e+00 1.8821480000000001e+01 3.5736800000000000e+00 0 0 0
3149 444 4 0.0000000000000000e+00 5.2898399999999999e+00 2.0648199999999999e+01 1.8169999999999999e+00 0 0 0
3157 444 4 -7.4069999999999997e-02 1.6594700000000000e+00 2.2462209999999999e+01 3.5753400000000002e+00 0 0 0
3158 444 4 0.0000000000000000e+00 3.4729999999999999e+00 2.2465050000000002e+01 1.8169999999999999e+00 0 0 0
3159 444 4 0.0000000000000000e+00 1.6560500000000000e+00 2.4282000000000000e+01 1.8169999999999999e+00 0 0 0
3162 444 4 0.0000000000000000e+00 5.2898399999999999e+00 2.2465050000000002e+01 0.0000000000000000e+00 0 0 0
3163 444 4 -7.4069999999999997e-02 5.2859600000000002e+00 2.2465979999999998e+01 3.5751400000000002e+00 0 0 0
3165 444 4 0.0000000000000000e+00 5.2898399999999999e+00 2.4282000000000000e+01 1.8169999999999999e+00 0 0 0
3168 444 4 0.0000000000000000e+00 1.6560500000000000e+00 2.2465050000000002e+01 0.0000000000000000e+00 0 0 0
3182 444 4 -7.4069999999999997e-02 3.4738799999999999e+00 2.4279219999999999e+01 3.5753400000000002e+00 0 0 0
3183 444 4 0.0000000000000000e+00 3.4729999999999999e+00 2.4282000000000000e+01 0.0000000000000000e+00 0 0 0
1315 444 2 -8.2999999999999996e-01 2.4018580575225714e+00 2.4048287119014915e+01 6.6854904024316113e+00 1 3 0
512 444 1 4.1499999999999998e-01 7.2090299940305669e-01 1.8529635514724969e+01 7.3637885136786743e+00 2 3 0
1357 444 2 -8.2999999999999996e-01 4.3619139767741961e+00 1.7806353521080883e+01 6.7996186639803229e+00 4 -7 0
392 444 1 4.1499999999999998e-01 2.9702284072574270e+00 2.2098504499046410e+01 6.9812769471163527e+00 -5 1 0
1359 444 1 4.1499999999999998e-01 4.3285248329931392e+00 1.7805435900339280e+01 5.8430015167774743e+00 4 -7 0
393 444 1 4.1499999999999998e-01 4.0422328096418241e+00 2.1076147823130274e+01 6.6690439388677385e+00 -5 1 0
391 444 2 -8.2999999999999996e-01 3.4501930909144276e+00 2.1364028910830978e+01 7.3639151885793295e+00 -5 1 0
1358 444 1 4.1499999999999998e-01 5.2037930381547266e+00 1.8210357984301552e+01 7.0099800925637554e+00 4 -7 0
1316 444 1 4.1499999999999998e-01 1.6502711068305591e+00 2.3579176966063699e+01 7.0478237149756930e+00 1 3 0
474 444 1 4.1499999999999998e-01 4.4107980558637285e+00 2.4113112483222153e+01 6.5862317619926305e+00 2 1 0
472 444 2 -8.2999999999999996e-01 5.2472206950601352e+00 2.3653133458341767e+01 6.6572868904821574e+00 2 1 0
1644 444 1 4.1499999999999998e-01 2.9990823739041326e+00 1.7370785929594916e+01 7.4891169869423173e+00 1 1 0
1643 444 1 4.1499999999999998e-01 1.7768773162249669e+00 1.6490546933499903e+01 7.6417265595108876e+00 1 1 0
1709 444 1 4.1499999999999998e-01 3.7868317750885383e-01 2.1507096505606004e+01 6.8471774123461246e+00 2 3 0
1710 444 1 4.1499999999999998e-01 5.2507855479291266e-03 2.2622814331261797e+01 5.8944877565928708e+00 2 3 0
1708 444 2 -8.2999999999999996e-01 2.4425140898442191e-01 2.2453908158468089e+01 6.8058501910575284e+00 2 3 0
513 444 1 4.1499999999999998e-01 2.2997596335392465e-01 1.8873049022671129e+01 5.9734813170982051e+00 2 3 0
1317 444 1 4.1499999999999998e-01 2.0478962428087559e+00 2.4525337778561994e+01 5.9349133897122499e+00 1 3 0
1037 444 1 4.1499999999999998e-01 1.2922934588463533e+00 2.2906963360393242e+01 9.6631535655029790e+00 3 -1 0
1905 444 1 4.1499999999999998e-01 2.0908595657462121e+00 1.8773943000295830e+01 8.4204544111885689e+00 -1 -5 0
2219 444 1 4.1499999999999998e-01 1.4007109453449009e+00 2.0179295781220389e+01 1.0201421967029372e+01 0 3 0
2786 444 1 4.1499999999999998e-01 3.9907435373939490e+00 2.1597681379530549e+01 1.1662126713234604e+01 3 -4 0
2785 444 2 -8.2999999999999996e-01 4.0038016079155332e+00 2.1444411082566951e+01 1.0717367355506468e+01 3 -4 0
1038 444 1 4.1499999999999998e-01 1.6311524213113273e+00 2.4381651771983538e+01 9.7117830198618567e+00 3 -1 0
2218 444 2 -8.2999999999999996e-01 7.5518227554508421e-01 2.0393184460679958e+01 1.0875051180769008e+01 0 3 0
2476 444 2 -8.2999999999999996e-01 2.0158012065971640e+00 2.0165658987772666e+01 1.3395823617434537e+01 4 -5 0
2478 444 1 4.1499999999999998e-01 2.3144161865027200e+00 1.9265369442249057e+01 1.3524434303953578e+01 4 -5 0
2477 444 1 4.1499999999999998e-01 1.5026063103879497e+00 2.0135250646909864e+01 1.2588396239770368e+01 4 -5 0
1036 444 2 -8.2999999999999996e-01 9.0164350382914582e-01 2.3769103594066546e+01 9.8057692024704295e+00 3 -1 0
2787 444 1 4.1499999999999998e-01 4.0391347509427575e+00 2.0491932243799020e+01 1.0629231324521900e+01 3 -4 0
1904 444 1 4.1499999999999998e-01 2.4863860300623264e+00 2.0222107855876434e+01 8.2248203791724048e+00 -1 -5 0
1903 444 2 -8.2999999999999996e-01 1.8055332552065202e+00 1.9668382657860811e+01 8.6069980573784761e+00 -1 -5 0
2847 444 1 4.1499999999999998e-01 2.9525669755826174e+00 2.1607950272961794e+01 1.3586276405932308e+01 2 1 0
2795 444 1 4.1499999999999998e-01 3.2453903137264755e+00 1.8459624237264247e+01 1.1857309465626034e+01 3 0 0
2845 444 2 -8.2999999999999996e-01 3.6593747056271768e+00 2.2235208711107649e+01 1.3433950907895612e+01 2 1 0
2846 444 1 4.1499999999999998e-01 3.9464610467901724e+00 2.2490817896597132e+01 1.4310579508405899e+01 2 1 0
1642 444 2 -8.2999999999999996e-01 2.3459835391579555e+00 1.7086618829243296e+01 8.1286035823465852e+00 1 1 0
2226 444 1 4.1499999999999998e-01 7.0248562734772269e-01 2.2078926594004411e+01 1.2796916221966086e+01 -2 -6 0
2674 444 2 -8.2999999999999996e-01 2.5092894407470658e+00 1.7348820311539050e+01 1.3524696347968737e+01 4 -2 0
2676 444 1 4.1499999999999998e-01 3.1635100170888326e+00 1.6654742483107817e+01 1.3444176572226995e+01 4 -2 0
2224 444 2 -8.2999999999999996e-01 4.3626298786449491e-01 2.2857721344285384e+01 1.3285625126019930e+01 -2 -6 0
216 444 1 4.1499999999999998e-01 1.2428054081573972e+00 1.9889919120251818e+01 1.5172209184999332e+01 -1 -1 0
2675 444 1 4.1499999999999998e-01 1.6866167848389464e+00 1.6885943778655680e+01 1.3683401583484001e+01 4 -2 0
2796 444 1 4.1499999999999998e-01 4.0855945426822720e+00 1.7648861327699606e+01 1.0893662102095526e+01 3 0 0
2225 444 1 4.1499999999999998e-01 8.8861631664147200e-01 2.3580386923373847e+01 1.2850466151689803e+01 -2 -6 0
39 444 1 4.1499999999999998e-01 5.4305737149847433e+00 1.9967362824084717e+01 1.5974286043420488e+01 5 1 0
2794 444 2 -8.2999999999999996e-01 3.8885293488963750e+00 1.8548658266407617e+01 1.1153976478493103e+01 3 0 0
2501 444 1 4.1499999999999998e-01 1.5370638816210973e+00 1.6555098424564036e+01 9.6761588642871690e+00 2 0 0
37 444 2 -8.2999999999999996e-01 5.3306286149461313e+00 1.9015532888556830e+01 1.5958078722030754e+01 5 1 0
1227 444 1 4.1499999999999998e-01 4.8657967253118561e-01 2.2100982958041119e+01 1.5311807110633902e+01 3 3 0
899 444 1 4.1499999999999998e-01 1.9341848061423458e-02 1.7551386853942123e+01 1.1244642497722664e+01 -1 3 0
2001 444 1 4.1499999999999998e-01 5.4442610448745601e+00 1.6633143892263604e+01 8.1209697125867475e+00 -2 -2 0
2502 444 1 4.1499999999999998e-01 5.3095044331552342e-02 1.6364778776046474e+01 9.4448352885489264e+00 2 0 0
1470 444 1 4.1499999999999998e-01 1.4612329791533689e+00 1.7968401735862653e+01 1.9143327952825903e+01 -1 0 0
2184 444 1 4.1499999999999998e-01 2.9246248829573576e+00 2.2647446845102291e+01 1.8071676778877396e+01 -3 -1 0
2182 444 2 -8.2999999999999996e-01 3.3940024894558833e+00 2.3333286232968337e+01 1.8546589973859252e+01 -3 -1 0
2234 444 1 4.1499999999999998e-01 3.7771129557160452e+00 2.1058100572657509e+01 1.6811839621415128e+01 1 -1 0
214 444 2 -8.2999999999999996e-01 1.4735759959946817e+00 1.9468414299207851e+01 1.6000044729366518e+01 -1 -1 0
2551 444 2 -8.2999999999999996e-01 3.4492759142753013e+00 1.8276418873667001e+01 1.7753299697166433e+01 0 1 0
2553 444 1 4.1499999999999998e-01 2.7869396782148783e+00 1.8601115764945401e+01 1.7143287743420689e+01 0 1 0
2552 444 1 4.1499999999999998e-01 4.2786673612254598e+00 1.8599739726969332e+01 1.7401439507201008e+01 0 1 0
2843 444 1 4.1499999999999998e-01 3.6650336919109128e+00 1.9358656375938899e+01 1.9315465942339952e+01 -3 -2 0
215 444 1 4.1499999999999998e-01 8.5878630430889624e-01 1.8738841814759180e+01 1.6077441625930248e+01 -1 -1 0
2235 444 1 4.1499999999999998e-01 2.3226678944939363e+00 2.0687811345471005e+01 1.6613418775577998e+01 1 -1 0
2233 444 2 -8.2999999999999996e-01 2.8916633331132942e+00 2.1419409644828686e+01 1.6852667773213660e+01 1 -1 0
1468 444 2 -8.2999999999999996e-01 1.0938384769573242e+00 1.8267724801845151e+01 1.9974988737419967e+01 -1 0 0
2698 444 2 -8.2999999999999996e-01 3.9438880188920739e-01 1.7198542191627098e+01 1.7577996695389487e+01 0 -2 0
2183 444 1 4.1499999999999998e-01 3.2664620792496080e+00 2.4121285996840250e+01 1.8018364055145422e+01 -3 -1 0
1226 444 1 4.1499999999999998e-01 5.7692752431527061e-01 2.1999737725385661e+01 1.6819614105394717e+01 3 3 0