LAMMPS data file via write_data, version 11 Aug 2017, timestep = 1000000

3570 atoms
13 atom types
2024 bonds
5 bond types
1018 angles
5 angle types
12 dihedrals
4 dihedral types
9 impropers
1 improper types

0.0000000000000000e+00 3.2704500000000003e+01 xlo xhi
0.0000000000000000e+00 3.2704500000000003e+01 ylo yhi
0.0000000000000000e+00 8.0000000000000000e+01 zlo zhi

Masses

1 1.0079
2 15.9994
3 39.0983
4 63.546
5 15.9994
6 12.011
7 15.9994
8 1.0079
9 12.011
10 15.9994
11 15.9994
12 15.9994
13 1.0079

Bond Coeffs # harmonic

1 450 0.9572
2 570 1.229
3 450 1.364
4 570 1.229
5 553 0.945

Angle Coeffs # harmonic

1 100 123.32
2 85 124
3 55 104.52
4 35 113
5 100 123.32

Dihedral Coeffs # charmm

1 0.922 1 180 0
2 3.741 2 0 0
3 0.922 1 0 0
4 3.741 2 180 0

Improper Coeffs # umbrella

1 21 0

Atoms # full

3049 444 4 -7.4069999999999997e-02 1.6558700000000000e+00 6.6154000000000002e-01 3.5790600000000001e+00 0 0 0
3050 444 4 0.0000000000000000e+00 3.4729999999999999e+00 6.6205000000000003e-01 1.8169999999999999e+00 0 0 0
3051 444 4 0.0000000000000000e+00 1.6560500000000000e+00 2.4790000000000001e+00 1.8169999999999999e+00 0 0 0
3054 444 4 0.0000000000000000e+00 5.2898399999999999e+00 6.6205000000000003e-01 0.0000000000000000e+00 0 0 0
3055 444 4 -7.4069999999999997e-02 5.2846000000000002e+00 6.6110999999999998e-01 3.5716700000000001e+00 0 0 0
3057 444 4 0.0000000000000000e+00 5.2898399999999999e+00 2.4790000000000001e+00 1.8169999999999999e+00 0 0 0
3060 444 4 0.0000000000000000e+00 1.6560500000000000e+00 6.6205000000000003e-01 0.0000000000000000e+00 0 0 0
3064 444 4 0.0000000000000000e+00 3.4729999999999999e+00 6.1128000000000000e+00 0.0000000000000000e+00 0 0 0
3065 444 4 -7.4069999999999997e-02 3.4660899999999999e+00 6.1145699999999996e+00 3.5676700000000001e+00 0 0 0
3066 444 4 0.0000000000000000e+00 1.6560500000000000e+00 4.2959500000000004e+00 0.0000000000000000e+00 0 0 0
3067 444 4 -7.4069999999999997e-02 1.6547200000000000e+00 4.2929000000000004e+00 3.5714500000000000e+00 0 0 0
3068 444 4 0.0000000000000000e+00 3.4729999999999999e+00 4.2959500000000004e+00 1.8169999999999999e+00 0 0 0
3069 444 4 0.0000000000000000e+00 1.6560500000000000e+00 6.1128000000000000e+00 1.8169999999999999e+00 0 0 0
3074 444 4 -7.4069999999999997e-02 3.4651500000000000e+00 2.4724400000000002e+00 3.5741600000000000e+00 0 0 0
3075 444 4 0.0000000000000000e+00 3.4729999999999999e+00 2.4790000000000001e+00 0.0000000000000000e+00 0 0 0
3076 444 4 0.0000000000000000e+00 5.2898399999999999e+00 4.2959500000000004e+00 0.0000000000000000e+00 0 0 0
3077 444 4 0.0000000000000000e+00 5.2898399999999999e+00 6.1128000000000000e+00 1.8169999999999999e+00 0 0 0
3086 444 4 0.0000000000000000e+00 1.6560500000000000e+00 7.9297500000000003e+00 0.0000000000000000e+00 0 0 0
3087 444 4 -7.4069999999999997e-02 1.6568600000000000e+00 7.9363799999999998e+00 3.5739800000000002e+00 0 0 0
3088 444 4 0.0000000000000000e+00 3.4729999999999999e+00 7.9297500000000003e+00 1.8169999999999999e+00 0 0 0
3092 444 4 0.0000000000000000e+00 5.2898399999999999e+00 7.9297500000000003e+00 0.0000000000000000e+00 0 0 0
3093 444 4 -7.4069999999999997e-02 5.2855499999999997e+00 7.9306799999999997e+00 3.5768100000000000e+00 0 0 0
3101 444 4 -7.4069999999999997e-02 5.2729400000000002e+00 4.2793299999999999e+00 3.5859100000000002e+00 0 0 0
2650 444 2 -8.2999999999999996e-01 3.6975325714506351e+00 3.8312823774939755e+00 6.7890841243251270e+00 -5 3 0
2651 444 1 4.1499999999999998e-01 4.3075350773266878e+00 3.1751253933194978e+00 7.1261108107182594e+00 -5 3 0
2652 444 1 4.1499999999999998e-01 4.2358920045857955e+00 4.3981954478795968e+00 6.2368064519159638e+00 -5 3 0
690 444 1 4.1499999999999998e-01 3.0790591344714779e+00 2.0741729678175962e+00 6.4542414342872920e+00 -1 3 0
688 444 2 -8.2999999999999996e-01 2.9809207559624413e+00 1.1221826139193591e+00 6.4364751057083218e+00 -1 3 0
2668 444 2 -8.2999999999999996e-01 9.2556169431077984e-01 4.2180339829280218e+00 6.7911626196898753e+00 3 2 0
2669 444 1 4.1499999999999998e-01 8.8663795445812121e-01 3.2630362135203801e+00 6.7392359821878767e+00 3 2 0
2090 444 1 4.1499999999999998e-01 3.6936831045634464e+00 7.5634811908065300e+00 6.7300672754242301e+00 -1 -2 0
2670 444 1 4.1499999999999998e-01 1.7456909192908558e+00 4.4488692012109894e+00 6.3548880070524900e+00 3 2 0
689 444 1 4.1499999999999998e-01 3.7731751085621026e+00 8.0733350459547848e-01 6.0012334476708604e+00 -1 3 0
134 444 1 4.1499999999999998e-01 7.0760962310398390e-01 9.0709390832324788e-01 7.5426134219233747e+00 -1 4 0
2561 444 1 4.1499999999999998e-01 1.2405357585106652e-01 5.8521155815047727e+00 6.9836914038383560e+00 3 0 0
974 444 1 4.1499999999999998e-01 5.2229581304481147e+00 1.2956238809524612e+00 7.5588417414887914e+00 4 -6 0
973 444 2 -8.2999999999999996e-01 5.3851640158393828e+00 2.2389530417136623e+00 7.5660750245895239e+00 4 -6 0
2520 444 1 4.1499999999999998e-01 7.0028515111962022e-02 2.6137196768053323e+00 1.2806543208649915e+01 -3 4 0
2129 444 1 4.1499999999999998e-01 2.7403372265113166e+00 8.0565165165744226e+00 1.1834909138865704e+01 1 -2 0
1345 444 2 -8.2999999999999996e-01 3.7902900136728022e+00 2.0519290199188411e+00 1.3551035867020524e+01 4 5 0
2998 444 2 -8.2999999999999996e-01 1.7586074095744297e+00 5.5418330226126251e+00 1.5221982901327737e+01 5 1 0
695 444 1 4.1499999999999998e-01 2.3250694940314118e+00 4.6573662798747533e+00 9.8039678025076391e+00 1 -2 0
982 444 2 -8.2999999999999996e-01 4.2227978351125922e-01 4.6993099905656068e+00 9.6135813059787427e+00 -1 -2 0
2506 444 2 -8.2999999999999996e-01 1.1765605757496287e+00 7.2482415548818979e+00 1.2172923781237552e+01 1 1 0
2507 444 1 4.1499999999999998e-01 1.2322649245173452e+00 6.4947729452140726e+00 1.2760643046685125e+01 1 1 0
983 444 1 4.1499999999999998e-01 1.0360429687556313e-01 4.2238281622639500e+00 1.0380780929474206e+01 -1 -2 0
1675 444 2 -8.2999999999999996e-01 4.6445565183785513e+00 6.7047842226927159e+00 1.3667991519284049e+01 0 -3 0
2916 444 1 4.1499999999999998e-01 1.8308400905809215e+00 2.3115485859269933e+00 1.4372888339645273e+01 1 -5 0
694 444 2 -8.2999999999999996e-01 3.1369503523368230e+00 4.2455865756064082e+00 9.5081299020778385e+00 1 -2 0
2915 444 1 4.1499999999999998e-01 5.6349533995946588e-01 2.7537078209337191e+00 1.5073051946865522e+01 1 -5 0
696 444 1 4.1499999999999998e-01 2.9444250934581171e+00 3.9466099475718828e+00 8.6194343186772251e+00 1 -2 0
2914 444 2 -8.2999999999999996e-01 1.0949789205627045e+00 2.9186351601953779e+00 1.4294233700633187e+01 1 -5 0
410 444 1 4.1499999999999998e-01 4.8468402468484477e+00 2.0284188943038295e+00 1.0483368826402703e+01 -1 4 0
1500 444 1 4.1499999999999998e-01 3.0142229580333884e+00 5.8913693240206677e-01 8.8800456678129365e+00 -5 2 0
2343 444 1 4.1499999999999998e-01 5.0253692346733629e+00 5.2444012420583945e+00 8.9223655944495608e+00 -3 4 0
2884 444 2 -8.2999999999999996e-01 8.6319100779151592e-01 7.4445939620585886e+00 9.7050245545844138e+00 1 0 0
2767 444 2 -8.2999999999999996e-01 4.8059553263918597e-01 6.0224523831819532e-02 1.0667433697487050e+01 -1 -2 0
2999 444 1 4.1499999999999998e-01 1.5149979976375174e+00 4.6690856000567376e+00 1.4913439778830925e+01 5 1 0
2130 444 1 4.1499999999999998e-01 4.2091229898426201e+00 7.7598186691127067e+00 1.2050626648147681e+01 1 -2 0
1499 444 1 4.1499999999999998e-01 2.2672025410193610e+00 2.4717344927053841e-01 1.0151626477923097e+01 -5 2 0
1498 444 2 -8.2999999999999996e-01 3.1044837578984699e+00 1.1535990881049613e-01 9.7068591973030767e+00 -5 2 0
1347 444 1 4.1499999999999998e-01 3.9034797203211311e+00 1.8850292656151670e+00 1.2615319421993586e+01 4 5 0
411 444 1 4.1499999999999998e-01 4.0658078220843574e+00 3.3231052375445378e+00 1.0408062947083986e+01 -1 4 0
409 444 2 -8.2999999999999996e-01 4.6502913829411829e+00 2.8237574079518177e+00 1.0978381135924757e+01 -1 4 0
355 444 2 -8.2999999999999996e-01 4.7488787457950874e+00 4.3353503890867167e+00 1.5337891198488354e+01 0 0 0
758 444 1 4.1499999999999998e-01 5.3360432994995550e+00 7.8956225798777879e+00 1.0065299857839271e+01 3 1 0
2886 444 1 4.1499999999999998e-01 1.0880394846431272e+00 7.3161013176650052e+00 1.0626525946133558e+01 1 0 0
357 444 1 4.1499999999999998e-01 4.2681222373626220e+00 3.7552163847390885e+00 1.4747509944916848e+01 0 0 0
2885 444 1 4.1499999999999998e-01 7.4695299941594329e-01 6.5590922430871297e+00 9.3606299367636385e+00 1 0 0
1346 444 1 4.1499999999999998e-01 4.6592942724749955e+00 1.9109698766283700e+00 1.3926795113107694e+01 4 5 0
1676 444 1 4.1499999999999998e-01 4.0907873490891378e+00 6.0000442191844510e+00 1.4004018301402395e+01 0 -3 0
2508 444 1 4.1499999999999998e-01 5.7679781056754520e-01 7.8513046255793890e+00 1.2612049702335616e+01 1 1 0
2532 444 1 4.1499999999999998e-01 4.6340841515480307e+00 7.7679318830771429e+00 1.5508638562019359e+01 -1 -1 0
1677 444 1 4.1499999999999998e-01 5.4244411320384627e+00 6.2597905160733474e+00 1.3336339404001084e+01 0 -3 0
1329 444 1 4.1499999999999998e-01 2.3228036936422117e-01 6.2878059581657615e+00 1.6523477164818615e+01 -1 2 0
2401 444 2 -8.2999999999999996e-01 4.8926271535951464e+00 7.3311157543318162e-01 1.7324823361774783e+01 2 5 0
2452 444 2 -8.2999999999999996e-01 5.2619539256220103e+00 5.1376153880306097e+00 1.9907562725902718e+01 4 2 0
3000 444 1 4.1499999999999998e-01 2.2552167878041183e+00 5.3826568654915539e+00 1.6024649869974418e+01 5 1 0
2785 444 2 -8.2999999999999996e-01 1.4031272549285245e+00 3.7214568814411795e+00 1.8096641506969952e+01 3 -1 0
2786 444 1 4.1499999999999998e-01 9.6200873946801368e-01 3.8672201999324449e+00 1.8933540457627821e+01 3 -1 0
2267 444 1 4.1499999999999998e-01 4.1832340638403442e+00 5.3830591009401934e+00 1.8284278135249629e+01 -1 3 0
2087 444 1 4.1499999999999998e-01 2.2235584020370502e-01 2.8236878617391086e+00 1.7019973355461016e+01 -2 0 0
2266 444 2 -8.2999999999999996e-01 3.5505442164180443e+00 5.1741999942702215e+00 1.7597027202506375e+01 -1 3 0
2787 444 1 4.1499999999999998e-01 2.2300633408006156e+00 4.1971056461368326e+00 1.8175180837425756e+01 3 -1 0
2268 444 1 4.1499999999999998e-01 4.0796488992402757e+00 4.8148457852388802e+00 1.6884885326084429e+01 -1 3 0
2403 444 1 4.1499999999999998e-01 5.0400550733785456e+00 1.0366322600682936e+00 1.6429070613572112e+01 2 5 0
2402 444 1 4.1499999999999998e-01 5.0984520616891729e+00 1.4910646264021719e+00 1.7871976157227216e+01 2 5 0
3084 444 4 0.0000000000000000e+00 3.4729999999999999e+00 9.7467000000000006e+00 0.0000000000000000e+00 0 0 0
3085 444 4 -7.4069999999999997e-02 3.4686400000000002e+00 9.7501599999999993e+00 3.5758899999999998e+00 0 0 0
3089 444 4 0.0000000000000000e+00 1.6560500000000000e+00 9.7467000000000006e+00 1.8169999999999999e+00 0 0 0
3095 444 4 0.0000000000000000e+00 5.2898399999999999e+00 9.7467000000000006e+00 1.8169999999999999e+00 0 0 0
3107 444 4 -7.4069999999999997e-02 1.6558700000000000e+00 1.1563040000000001e+01 3.5790600000000001e+00 0 0 0
3108 444 4 0.0000000000000000e+00 3.4729999999999999e+00 1.1563549999999999e+01 1.8169999999999999e+00 0 0 0
3109 444 4 0.0000000000000000e+00 1.6560500000000000e+00 1.3380500000000000e+01 1.8169999999999999e+00 0 0 0
3112 444 4 0.0000000000000000e+00 5.2898399999999999e+00 1.1563549999999999e+01 0.0000000000000000e+00 0 0 0
3113 444 4 -7.4069999999999997e-02 5.2846000000000002e+00 1.1562609999999999e+01 3.5716700000000001e+00 0 0 0
3115 444 4 0.0000000000000000e+00 5.2898399999999999e+00 1.3380500000000000e+01 1.8169999999999999e+00 0 0 0
3118 444 4 0.0000000000000000e+00 1.6560500000000000e+00 1.1563549999999999e+01 0.0000000000000000e+00 0 0 0
3124 444 4 0.0000000000000000e+00 1.6560500000000000e+00 1.5197450000000000e+01 0.0000000000000000e+00 0 0 0
3125 444 4 -7.4069999999999997e-02 1.6547200000000000e+00 1.5194400000000000e+01 3.5714500000000000e+00 0 0 0
3126 444 4 0.0000000000000000e+00 3.4729999999999999e+00 1.5197450000000000e+01 1.8169999999999999e+00 0 0 0
3132 444 4 -7.4069999999999997e-02 3.4651500000000000e+00 1.3373939999999999e+01 3.5741700000000001e+00 0 0 0
3133 444 4 0.0000000000000000e+00 3.4729999999999999e+00 1.3380500000000000e+01 0.0000000000000000e+00 0 0 0
3134 444 4 0.0000000000000000e+00 5.2898399999999999e+00 1.5197450000000000e+01 0.0000000000000000e+00 0 0 0
3159 444 4 -7.4069999999999997e-02 5.2729400000000002e+00 1.5180830000000000e+01 3.5859100000000002e+00 0 0 0
609 444 1 4.1499999999999998e-01 2.8297104109988065e+00 1.3483090746371738e+01 6.7647609453744444e+00 -2 2 0
2091 444 1 4.1499999999999998e-01 4.4656130073609415e+00 8.8649678781531769e+00 6.6836743809996069e+00 -1 -2 0
1720 444 2 -8.2999999999999996e-01 8.9785709281593373e-01 8.9777381607735904e+00 6.9774562786318217e+00 2 -1 0
1277 444 1 4.1499999999999998e-01 4.9572826448547556e+00 1.4108370765380442e+01 6.3073394828306792e+00 -1 -1 0
1276 444 2 -8.2999999999999996e-01 4.4671411897119881e+00 1.3343873928341944e+01 6.6098923328881849e+00 -1 -1 0
607 444 2 -8.2999999999999996e-01 1.8887143680859919e+00 1.3544970464925999e+01 6.9288646313635747e+00 -2 2 0
560 444 1 4.1499999999999998e-01 2.0658376813541017e+00 1.0188615824463934e+01 7.6008219683756026e+00 0 -3 0
559 444 2 -8.2999999999999996e-01 2.4877534991183237e+00 1.1036781625301739e+01 7.7380591522134567e+00 0 -3 0
561 444 1 4.1499999999999998e-01 2.4380230100359306e+00 1.1470214851127690e+01 6.8860647826538557e+00 0 -3 0
608 444 1 4.1499999999999998e-01 1.6229584527583227e+00 1.4357557062326766e+01 6.4983893022555517e+00 -2 2 0
2727 444 1 4.1499999999999998e-01 5.0552521610766965e-01 1.2514228979859707e+01 6.6168286435464312e+00 -1 0 0
1278 444 1 4.1499999999999998e-01 5.0835446774851158e+00 1.2616075383197920e+01 6.5287203783874839e+00 -1 -1 0
1721 444 1 4.1499999999999998e-01 8.1864890778572597e-01 8.2434318496948364e+00 7.5863509382916581e+00 2 -1 0
2089 444 2 -8.2999999999999996e-01 4.0447989097843440e+00 8.2556890775031313e+00 7.2902442340123645e+00 -1 -2 0
1722 444 1 4.1499999999999998e-01 3.5696028841885885e-01 8.7277464282552337e+00 6.2283456065289879e+00 2 -1 0
2726 444 1 4.1499999999999998e-01 1.0531821480754107e-02 1.1084852257104767e+01 6.6781428297879932e+00 -1 0 0
1030 444 2 -8.2999999999999996e-01 4.3993381530028255e-02 1.5674073130250532e+01 9.9474046259379492e+00 -2 3 0
1031 444 1 4.1499999999999998e-01 5.3284403600796826e-01 1.4856681301975742e+01 1.0042942851167831e+01 -2 3 0
903 444 1 4.1499999999999998e-01 3.7793713010440406e+00 1.5783669697603317e+01 1.0177979080160767e+01 -1 2 0
704 444 1 4.1499999999999998e-01 2.7876064250305070e+00 9.8007123771241016e+00 1.0900575433187671e+01 0 2 0
3027 444 3 1.0000000000000000e+00 4.1589322136854623e+00 1.2791081162791629e+01 9.3120288426030005e+00 -3 -1 0
705 444 1 4.1499999999999998e-01 2.2544454796644273e+00 1.0683656349341538e+01 9.7924032306433162e+00 0 2 0
703 444 2 -8.2999999999999996e-01 2.6845272494107579e+00 1.0717900524517109e+01 1.0646855948140685e+01 0 2 0
1730 444 1 4.1499999999999998e-01 3.3751450874695355e+00 1.2544448045645703e+01 1.2922735233076619e+01 2 1 0
1729 444 2 -8.2999999999999996e-01 3.4636346171009040e+00 1.2833591832222760e+01 1.2014551651418262e+01 2 1 0
1731 444 1 4.1499999999999998e-01 2.9548620653248654e+00 1.2198934717794872e+01 1.1509979795552963e+01 2 1 0
2143 444 2 -8.2999999999999996e-01 7.1629209182047671e-01 1.4004885612188003e+01 1.5095586555277187e+01 2 0 0
2144 444 1 4.1499999999999998e-01 1.0233039272897473e+00 1.4757822983006756e+01 1.4590549399108378e+01 2 0 0
1537 444 2 -8.2999999999999996e-01 1.4712069273600727e+00 1.5634893737788174e+01 1.3153503279872439e+01 -1 1 0
1538 444 1 4.1499999999999998e-01 1.4974044865325637e+00 1.5121607394166922e+01 1.2345986813383570e+01 -1 1 0
902 444 1 4.1499999999999998e-01 2.8480850116725724e+00 1.5724295423637667e+01 8.9858895409477011e+00 -1 2 0
140 444 1 4.1499999999999998e-01 5.2080594763110017e+00 1.5857123404290071e+01 8.8039477678748774e+00 5 -1 0
2682 444 1 4.1499999999999998e-01 4.9921488020948974e+00 9.2913431739623551e+00 1.2616028986349068e+01 -2 -2 0
944 444 1 4.1499999999999998e-01 3.2474483497927498e+00 1.5889920742094851e+01 1.4332977962200271e+01 -1 1 0
901 444 2 -8.2999999999999996e-01 3.6195983155064293e+00 1.5303626362474992e+01 9.3654128353602069e+00 -1 2 0
876 444 1 4.1499999999999998e-01 4.4742506341504482e+00 1.3461261347186012e+01 1.5346349061630690e+01 3 -1 0
2145 444 1 4.1499999999999998e-01 1.4647503305799860e+00 1.3759404703727810e+01 1.5639445017517470e+01 2 0 0
1323 444 1 4.1499999999999998e-01 8.0950080635829522e-03 1.2689750270806373e+01 9.6267558247187495e+00 3 -1 0
943 444 2 -8.2999999999999996e-01 3.8318046653609175e+00 1.6298222663132226e+01 1.4971765534547114e+01 -1 1 0
874 444 2 -8.2999999999999996e-01 5.2461322720387278e+00 1.3838887485831942e+01 1.4924649859569289e+01 3 -1 0
2530 444 2 -8.2999999999999996e-01 4.8785345474237225e+00 8.6877999826012129e+00 1.5610219469404310e+01 -1 -1 0
875 444 1 4.1499999999999998e-01 5.0118849985343434e+00 1.4754131260344085e+01 1.4770732957888859e+01 3 -1 0
1321 444 2 -8.2999999999999996e-01 8.3582403811502537e-01 1.3169993351838047e+01 9.6052193551877458e+00 3 -1 0
1322 444 1 4.1499999999999998e-01 1.0405892363538463e+00 1.3253634797262606e+01 8.6739254839416358e+00 3 -1 0
2531 444 1 4.1499999999999998e-01 5.1840787116515088e+00 8.9521555374674886e+00 1.4742468846248562e+01 -1 -1 0
1688 444 1 4.1499999999999998e-01 6.8567487533037971e-02 8.8611904703005901e+00 1.0215401662161556e+01 0 -1 0
2128 444 2 -8.2999999999999996e-01 3.6164691581064399e+00 8.3865596027040752e+00 1.1635669831280572e+01 1 -2 0
759 444 1 4.1499999999999998e-01 4.9255276484760282e+00 8.2816883557508785e+00 8.6601923442508468e+00 3 1 0
1469 444 1 4.1499999999999998e-01 3.8796904132965739e+00 9.5767646314282953e+00 1.6739013764621149e+01 2 2 0
2193 444 1 4.1499999999999998e-01 3.1929472912466017e-01 1.1370880343606347e+01 1.8000108049428679e+01 -2 -1 0
2370 444 1 4.1499999999999998e-01 5.0918931445025777e+00 1.4264441171713194e+01 1.9048351114653112e+01 5 -4 0
1468 444 2 -8.2999999999999996e-01 3.3531519929354761e+00 1.0117610841720101e+01 1.7327635166794867e+01 2 2 0
911 444 1 4.1499999999999998e-01 5.4344228339718237e+00 1.0866504061214355e+01 1.9501678854493118e+01 -9 0 0
910 444 2 -8.2999999999999996e-01 4.5593542159772120e+00 1.1253070381774640e+01 1.9534139066312392e+01 -9 0 0
41 444 1 4.1499999999999998e-01 2.9458228216486098e+00 1.3926989838734048e+01 1.7556016007438458e+01 -2 -1 0
1872 444 1 4.1499999999999998e-01 3.0716434524105418e+00 1.5501782846773434e+01 1.9650627921824146e+01 1 -2 0
40 444 2 -8.2999999999999996e-01 2.9630758169609344e+00 1.4008715520746291e+01 1.6602466931612543e+01 -2 -1 0
42 444 1 4.1499999999999998e-01 3.2609778996315892e+00 1.4904419794004072e+01 1.6443719561589557e+01 -2 -1 0
2368 444 2 -8.2999999999999996e-01 4.1691159249740029e+00 1.4014121022626815e+01 1.9093672873546105e+01 5 -4 0
2369 444 1 4.1499999999999998e-01 4.1786415890304571e+00 1.3125885663917989e+01 1.9450295034615323e+01 5 -4 0
912 444 1 4.1499999999999998e-01 4.0486921254631376e+00 1.0744207592000473e+01 1.8904443868545805e+01 -9 0 0
2191 444 2 -8.2999999999999996e-01 3.9786546656348398e-01 1.0899712754172478e+01 1.7170614163972651e+01 -2 -1 0
1470 444 1 4.1499999999999998e-01 3.4490109928082813e+00 1.1006841182981280e+01 1.6986587876886997e+01 2 2 0
2192 444 1 4.1499999999999998e-01 1.2111491223912598e+00 1.0401791651239886e+01 1.7253542821278984e+01 -2 -1 0
3122 444 4 0.0000000000000000e+00 3.4729999999999999e+00 1.7014299999999999e+01 0.0000000000000000e+00 0 0 0
3123 444 4 -7.4069999999999997e-02 3.4660899999999999e+00 1.7016069999999999e+01 3.5676700000000001e+00 0 0 0
3127 444 4 0.0000000000000000e+00 1.6560500000000000e+00 1.7014299999999999e+01 1.8169999999999999e+00 0 0 0
3135 444 4 0.0000000000000000e+00 5.2898399999999999e+00 1.7014299999999999e+01 1.8169999999999999e+00 0 0 0
3142 444 4 0.0000000000000000e+00 3.4729999999999999e+00 2.0648199999999999e+01 0.0000000000000000e+00 0 0 0
3143 444 4 -7.4069999999999997e-02 3.4686400000000002e+00 2.0651660000000000e+01 3.5758899999999998e+00 0 0 0
3144 444 4 0.0000000000000000e+00 1.6560500000000000e+00 1.8831250000000001e+01 0.0000000000000000e+00 0 0 0
3145 444 4 -7.4069999999999997e-02 1.6568600000000000e+00 1.8837879999999998e+01 3.5739800000000002e+00 0 0 0
3146 444 4 0.0000000000000000e+00 3.4729999999999999e+00 1.8831250000000001e+01 1.8169999999999999e+00 0 0 0
3147 444 4 0.0000000000000000e+00 1.6560500000000000e+00 2.0648199999999999e+01 1.8169999999999999e+00 0 0 0
3150 444 4 0.0000000000000000e+00 5.2898399999999999e+00 1.8831250000000001e+01 0.0000000000000000e+00 0 0 0
3151 444 4 -7.4069999999999997e-02 5.2855499999999997e+00 1.8832180000000001e+01 3.5768100000000000e+00 0 0 0
3153 444 4 0.0000000000000000e+00 5.2898399999999999e+00 2.0648199999999999e+01 1.8169999999999999e+00 0 0 0
3165 444 4 -7.4069999999999997e-02 1.6558700000000000e+00 2.2464540000000000e+01 3.5790600000000001e+00 0 0 0
3166 444 4 0.0000000000000000e+00 3.4729999999999999e+00 2.2465050000000002e+01 1.8169999999999999e+00 0 0 0
3167 444 4 0.0000000000000000e+00 1.6560500000000000e+00 2.4282000000000000e+01 1.8169999999999999e+00 0 0 0
3170 444 4 0.0000000000000000e+00 5.2898399999999999e+00 2.2465050000000002e+01 0.0000000000000000e+00 0 0 0
3171 444 4 -7.4069999999999997e-02 5.2846000000000002e+00 2.2464110000000002e+01 3.5716700000000001e+00 0 0 0
3173 444 4 0.0000000000000000e+00 5.2898399999999999e+00 2.4282000000000000e+01 1.8169999999999999e+00 0 0 0
3176 444 4 0.0000000000000000e+00 1.6560500000000000e+00 2.2465050000000002e+01 0.0000000000000000e+00 0 0 0
3190 444 4 -7.4069999999999997e-02 3.4651500000000000e+00 2.4275440000000000e+01 3.5741700000000001e+00 0 0 0
3191 444 4 0.0000000000000000e+00 3.4729999999999999e+00 2.4282000000000000e+01 0.0000000000000000e+00 0 0 0
2043 444 1 4.1499999999999998e-01 4.5520095893337480e+00 1.7667666579070321e+01 6.2110857389355862e+00 -4 -6 0
2039 444 2 -8.2999999999999996e-01 4.0847967928847222e+00 1.7856374741637079e+01 7.0249245382225363e+00 -4 -6 0
2041 444 1 4.1499999999999998e-01 4.6981785298667127e+00 1.8383277042752962e+01 7.5371446161794449e+00 -4 -6 0
2123 444 1 4.1499999999999998e-01 2.1597562654276237e+00 2.0923367822640785e+01 7.4087079994157961e+00 4 4 0
792 444 1 4.1499999999999998e-01 4.7255493832961459e-01 2.2773686596259374e+01 7.2096096312181723e+00 1 -3 0
2122 444 2 -8.2999999999999996e-01 2.1963969976496829e+00 1.9967723619434199e+01 7.3682890139002772e+00 4 4 0
2124 444 1 4.1499999999999998e-01 3.0004904360298181e+00 1.9778631747196844e+01 6.8846460212829657e+00 4 4 0
2099 444 1 4.1499999999999998e-01 5.1567828558437050e+00 2.2315761585717961e+01 6.8982833196476454e+00 -2 -8 0
1901 444 1 4.1499999999999998e-01 9.2589685313923220e-01 1.8862189991251046e+01 6.9936599500792411e+00 3 -2 0
1745 444 1 4.1499999999999998e-01 2.6438842448670785e+00 1.6865034758220819e+01 7.0806160380376415e+00 2 -1 0
979 444 2 -8.2999999999999996e-01 2.6579018768810156e+00 2.3556677756586506e+01 6.9078890807891806e+00 3 1 0
1744 444 2 -8.2999999999999996e-01 1.8642941860230888e+00 1.6471182441019909e+01 7.4722190486883955e+00 2 -1 0
682 444 2 -8.2999999999999996e-01 5.2205834227456736e+00 2.4392895240580927e+01 6.9099383976999373e+00 -2 -1 0
1900 444 2 -8.2999999999999996e-01 6.7162378294209762e-02 1.8456184962939258e+01 6.8754777450266999e+00 3 -2 0
1746 444 1 4.1499999999999998e-01 1.1374768494121728e+00 1.7001079657759281e+01 7.1448388992046707e+00 2 -1 0
981 444 1 4.1499999999999998e-01 3.5909146778895504e+00 2.3735648437822231e+01 6.7908857877071940e+00 3 1 0
980 444 1 4.1499999999999998e-01 2.3019184705009788e+00 2.3548096170948774e+01 6.0193877587677624e+00 3 1 0
1419 444 1 4.1499999999999998e-01 4.1489079015873962e+00 1.7667893170446526e+01 1.2350156814547844e+01 -3 -5 0
69 444 1 4.1499999999999998e-01 1.9439230095522977e+00 2.2257782950004437e+01 1.5129727226509315e+01 7 -3 0
67 444 2 -8.2999999999999996e-01 1.9496857068580371e+00 2.2199502818049822e+01 1.4174320372592909e+01 7 -3 0
2802 444 1 4.1499999999999998e-01 1.3386996726949070e+00 1.7483233044194545e+01 9.2224749725342363e+00 -1 1 0
2746 444 2 -8.2999999999999996e-01 3.8058857237673274e+00 1.8690583947649614e+01 1.3782692073944812e+01 0 2 0
2748 444 1 4.1499999999999998e-01 3.1061993481459345e+00 1.8879829230561342e+01 1.3157504226028498e+01 0 2 0
388 444 2 -8.2999999999999996e-01 2.6871512515766547e+00 2.2303562227404065e+01 1.1197166364261763e+01 3 5 0
68 444 1 4.1499999999999998e-01 2.8666900006337923e+00 2.2327649910429027e+01 1.3931597204186465e+01 7 -3 0
2801 444 1 4.1499999999999998e-01 1.4760869250141975e+00 1.8902465068337904e+01 8.7137497952145875e+00 -1 1 0
2800 444 2 -8.2999999999999996e-01 1.2269064221147645e+00 1.8396328760770118e+01 9.4870337354854701e+00 -1 1 0
389 444 1 4.1499999999999998e-01 2.7272134012990157e+00 2.3240724090714615e+01 1.1006496820956844e+01 3 5 0
2747 444 1 4.1499999999999998e-01 4.0374072459250394e+00 1.9543935473482186e+01 1.4149327376892035e+01 0 2 0
390 444 1 4.1499999999999998e-01 1.7527480631953998e+00 2.2096184742335879e+01 1.1186336437082748e+01 3 5 0
2578 444 2 -8.2999999999999996e-01 5.0615569468136572e+00 2.0512527807472253e+01 1.5436920910095395e+01 10 -1 0
2579 444 1 4.1499999999999998e-01 5.2428301477551535e+00 2.1419619196692480e+01 1.5190837012018260e+01 10 -1 0
1539 444 1 4.1499999999999998e-01 1.4947765506885877e+00 1.6545629909398510e+01 1.2859843062219294e+01 -1 1 0
1417 444 2 -8.2999999999999996e-01 4.4633220435648120e+00 1.7108926158268819e+01 1.1639571455374801e+01 -3 -5 0
786 444 1 4.1499999999999998e-01 1.2661406054513411e+00 1.9486462105846272e+01 1.2031337259188897e+01 2 1 0
945 444 1 4.1499999999999998e-01 3.9817193112123066e+00 1.7179930132491140e+01 1.4630665166039185e+01 -1 1 0
2771 444 1 4.1499999999999998e-01 4.2985930373265893e+00 2.1171259759490781e+01 1.1252127785392030e+01 -3 0 0
785 444 1 4.1499999999999998e-01 1.7669603270750927e+00 1.8365583732909794e+01 1.1145500533014909e+01 2 1 0
784 444 2 -8.2999999999999996e-01 1.7750117108374515e+00 1.8675969882692037e+01 1.2050943886538827e+01 2 1 0
1418 444 1 4.1499999999999998e-01 5.2789458347637934e+00 1.7520279695518749e+01 1.1353602667769149e+01 -3 -5 0
2533 444 2 -8.2999999999999996e-01 1.5615432722764794e-01 2.0995944095021684e+01 1.2479119872751680e+01 -1 2 0
2534 444 1 4.1499999999999998e-01 9.3534827684192767e-01 2.1321042297667130e+01 1.2930118904032312e+01 -1 2 0
1709 444 1 4.1499999999999998e-01 5.0074548466973798e+00 2.3500109430811264e+01 1.4480719811597856e+01 1 0 0
1710 444 1 4.1499999999999998e-01 5.0949094062669271e+00 2.3009880741834106e+01 1.3051061208479785e+01 1 0 0
1708 444 2 -8.2999999999999996e-01 4.5521645266659281e+00 2.2956528486131241e+01 1.3837708849548793e+01 1 0 0
1298 444 1 4.1499999999999998e-01 2.2899781436938484e+00 2.4182441646503197e+01 1.3219318234897012e+01 -2 3 0
2770 444 2 -8.2999999999999996e-01 5.2001540485680424e+00 2.0869405836084493e+01 1.1141204744774781e+01 -3 0 0
798 444 1 4.1499999999999998e-01 5.4258882524086633e+00 2.0015981682573774e+01 8.0843885232967541e+00 -2 -3 0
1968 444 1 4.1499999999999998e-01 2.9878760409714942e+00 2.4441668983502538e+01 8.6634825246075327e+00 1 5 0
2335 444 2 -8.2999999999999996e-01 9.5512327557731480e-01 2.2163310012911250e+01 1.7863232740877805e+01 2 0 0
2713 444 2 -8.2999999999999996e-01 2.3624090864674663e-01 2.4247523159104382e+01 1.9681224063082659e+01 4 -2 0
49 444 2 -8.2999999999999996e-01 2.8553129951210572e+00 1.7420682523395662e+01 1.7429788775473707e+01 2 0 0
51 444 1 4.1499999999999998e-01 2.9703174399415486e+00 1.7138536408093550e+01 1.6522374753025801e+01 2 0 0
1840 444 2 -8.2999999999999996e-01 4.6811283879296077e+00 2.2902892122088549e+01 1.9923943251158011e+01 0 1 0
2277 444 1 4.1499999999999998e-01 3.9344120895240851e+00 2.0257192177391687e+01 1.8497280611703641e+01 -1 1 0
2276 444 1 4.1499999999999998e-01 3.8609916968147875e+00 2.0530268371140135e+01 1.7010022448036775e+01 -1 1 0
2275 444 2 -8.2999999999999996e-01 3.4223281509204515e+00 2.0053499268626986e+01 1.7714648672684877e+01 -1 1 0
2337 444 1 4.1499999999999998e-01 1.7927072698422415e+00 2.1699993761944654e+01 1.7858399131009783e+01 2 0 0
50 444 1 4.1499999999999998e-01 2.8177533632915024e+00 1.8375909931998773e+01 1.7381169508262051e+01 2 0 0
1871 444 1 4.1499999999999998e-01 2.7994021462879157e+00 1.6866562075014404e+01 1.9054676759429789e+01 1 -2 0
2715 444 1 4.1499999999999998e-01 5.1893465535407179e-01 2.3697882400924595e+01 1.8950326072440969e+01 4 -2 0
2003 444 1 4.1499999999999998e-01 4.8669284867210871e+00 1.8111583037544033e+01 1.7343425813130786e+01 0 -3 0
2336 444 1 4.1499999999999998e-01 3.2112483707733502e-01 2.1509890039368653e+01 1.8158734321295018e+01 2 0 0
1841 444 1 4.1499999999999998e-01 5.3503783476624793e+00 2.3314447802384176e+01 1.9377171205859756e+01 0 1 0
1870 444 2 -8.2999999999999996e-01 2.8232831908040166e+00 1.6395335829455707e+01 1.9887507870538986e+01 1 -2 0
3180 444 4 0.0000000000000000e+00 3.4729999999999999e+00 2.7915800000000001e+01 0.0000000000000000e+00 0 0 0
3181 444 4 -7.4069999999999997e-02 3.4660899999999999e+00 2.7917570000000001e+01 3.5676700000000001e+00 0 0 0
3182 444 4 0.0000000000000000e+00 1.6560500000000000e+00 2.6098949999999999e+01 0.0000000000000000e+00 0 0 0
3183 444 4 -7.4069999999999997e-02 1.6547200000000000e+00 2.6095900000000000e+01 3.5714500000000000e+00 0 0 0
3184 444 4 0.0000000000000000e+00 3.4729999999999999e+00 2.6098949999999999e+01 1.8169999999999999e+00 0 0 0
3185 444 4 0.0000000000000000e+00 1.6560500000000000e+00 2.7915800000000001e+01 1.8169999999999999e+00 0 0 0
3192 444 4 0.0000000000000000e+00 5.2898399999999999e+00 2.6098949999999999e+01 0.0000000000000000e+00 0 0 0
3193 444 4 0.0000000000000000e+00 5.2898399999999999e+00 2.7915800000000001e+01 1.8169999999999999e+00 0 0 0
3200 444 4 0.0000000000000000e+00 3.4729999999999999e+00 3.1549700000000001e+01 0.0000000000000000e+00 0 0 0
3201 444 4 -7.4069999999999997e-02 3.4686400000000002e+00 3.1553159999999998e+01 3.5758899999999998e+00 0 0 0