LAMMPS data file via write_data, version 11 Aug 2017, timestep = 1000000

3552 atoms
11 atom types
2024 bonds
5 bond types
1018 angles
5 angle types
12 dihedrals
4 dihedral types
9 impropers
1 improper types

0.0000000000000000e+00 3.2704500000000003e+01 xlo xhi
0.0000000000000000e+00 3.2704500000000003e+01 ylo yhi
0.0000000000000000e+00 8.0000000000000000e+01 zlo zhi

Masses

1 1.0079
2 15.9994
3 39.0983
4 63.546
5 15.9994
6 12.011
7 12.011
8 15.9994
9 15.9994
10 15.9994
11 1.0079

Bond Coeffs # harmonic

1 450 0.9572
2 570 1.229
3 450 1.364
4 570 1.229
5 553 0.945

Angle Coeffs # harmonic

1 100 123.32
2 85 124
3 55 104.52
4 35 113
5 100 123.32

Dihedral Coeffs # charmm

1 0.922 1 180 0
2 3.741 2 0 0
3 0.922 1 0 0
4 3.741 2 180 0

Improper Coeffs # umbrella

1 21 0

Atoms # full

3049 444 4 -7.4069999999999997e-02 1.6594700000000000e+00 6.5920999999999996e-01 3.5753400000000002e+00 0 0 0
3050 444 4 0.0000000000000000e+00 3.4729999999999999e+00 6.6205000000000003e-01 1.8169999999999999e+00 0 0 0
3051 444 4 0.0000000000000000e+00 1.6560500000000000e+00 2.4790000000000001e+00 1.8169999999999999e+00 0 0 0
3054 444 4 0.0000000000000000e+00 5.2898399999999999e+00 6.6205000000000003e-01 0.0000000000000000e+00 0 0 0
3055 444 4 -7.4069999999999997e-02 5.2859600000000002e+00 6.6298000000000001e-01 3.5751400000000002e+00 0 0 0
3057 444 4 0.0000000000000000e+00 5.2898399999999999e+00 2.4790000000000001e+00 1.8169999999999999e+00 0 0 0
3060 444 4 0.0000000000000000e+00 1.6560500000000000e+00 6.6205000000000003e-01 0.0000000000000000e+00 0 0 0
3064 444 4 0.0000000000000000e+00 3.4729999999999999e+00 6.1128000000000000e+00 0.0000000000000000e+00 0 0 0
3065 444 4 -7.4069999999999997e-02 3.4735499999999999e+00 6.1125299999999996e+00 3.5709300000000002e+00 0 0 0
3066 444 4 0.0000000000000000e+00 1.6560500000000000e+00 4.2959500000000004e+00 0.0000000000000000e+00 0 0 0
3067 444 4 -7.4069999999999997e-02 1.6457500000000000e+00 4.3038999999999996e+00 3.5737800000000002e+00 0 0 0
3068 444 4 0.0000000000000000e+00 3.4729999999999999e+00 4.2959500000000004e+00 1.8169999999999999e+00 0 0 0
3069 444 4 0.0000000000000000e+00 1.6560500000000000e+00 6.1128000000000000e+00 1.8169999999999999e+00 0 0 0
3074 444 4 -7.4069999999999997e-02 3.4738799999999999e+00 2.4762200000000001e+00 3.5753400000000002e+00 0 0 0
3075 444 4 0.0000000000000000e+00 3.4729999999999999e+00 2.4790000000000001e+00 0.0000000000000000e+00 0 0 0
3076 444 4 0.0000000000000000e+00 5.2898399999999999e+00 4.2959500000000004e+00 0.0000000000000000e+00 0 0 0
3077 444 4 0.0000000000000000e+00 5.2898399999999999e+00 6.1128000000000000e+00 1.8169999999999999e+00 0 0 0
3086 444 4 0.0000000000000000e+00 1.6560500000000000e+00 7.9297500000000003e+00 0.0000000000000000e+00 0 0 0
3087 444 4 -7.4069999999999997e-02 1.6436400000000000e+00 7.9178800000000003e+00 3.5731700000000002e+00 0 0 0
3088 444 4 0.0000000000000000e+00 3.4729999999999999e+00 7.9297500000000003e+00 1.8169999999999999e+00 0 0 0
3092 444 4 0.0000000000000000e+00 5.2898399999999999e+00 7.9297500000000003e+00 0.0000000000000000e+00 0 0 0
3093 444 4 -7.4069999999999997e-02 5.3014200000000002e+00 7.9199799999999998e+00 3.5736800000000000e+00 0 0 0
3101 444 4 -7.4069999999999997e-02 5.3039500000000004e+00 4.3090400000000004e+00 3.5747000000000000e+00 0 0 0
2182 444 2 -8.2999999999999996e-01 2.1065331796183737e+00 2.5018403055046465e+00 7.5882148578485964e+00 2 2 0
979 444 2 -8.2999999999999996e-01 2.3882713078812459e+00 5.3140705341577306e+00 6.9320992049557084e+00 -1 -1 0
2183 444 1 4.1499999999999998e-01 2.2634095953314604e+00 3.3552074200208728e+00 7.1840043017361452e+00 2 2 0
2184 444 1 4.1499999999999998e-01 1.1615286770083237e+00 2.3701379608921629e+00 7.5117110694086904e+00 2 2 0
981 444 1 4.1499999999999998e-01 1.8060439159352415e+00 6.0726937260290921e+00 6.9737516647500799e+00 -1 -1 0
980 444 1 4.1499999999999998e-01 2.8429501176060108e+00 5.4061919707974200e+00 6.0948339986404205e+00 -1 -1 0
2537 444 1 4.1499999999999998e-01 2.4454862715992856e+00 5.6127438822238196e-01 7.5650961699994843e+00 -2 5 0
1693 444 2 -8.2999999999999996e-01 9.3528909871431287e-01 7.7132106599102510e+00 6.9047479683141217e+00 1 2 0
1073 444 1 4.1499999999999998e-01 3.4541691329280324e+00 7.9184105322431968e+00 7.8553795772548183e+00 5 0 0
1075 444 2 -8.2999999999999996e-01 4.9297177995364239e+00 4.4512842774732837e+00 7.4942908589750052e+00 2 -4 0
1077 444 1 4.1499999999999998e-01 4.0138327461161172e+00 4.7161799616762181e+00 7.5792486002958137e+00 2 -4 0
1694 444 1 4.1499999999999998e-01 7.7860042476613212e-02 7.2892643197522551e+00 6.9410379393556392e+00 1 2 0
2804 444 1 4.1499999999999998e-01 1.0183509561642692e-01 4.5080711725627838e+00 6.7211529255863152e+00 0 0 0
251 444 1 4.1499999999999998e-01 4.4292765956790285e+00 7.4254027356206747e+00 6.5669338188348707e+00 5 -4 0
250 444 2 -8.2999999999999996e-01 5.2571742886993729e+00 7.2435987871437435e+00 7.0116412543279756e+00 5 -4 0
1076 444 1 4.1499999999999998e-01 5.2922035590160394e+00 5.0475433268325860e+00 6.8390718076971631e+00 2 -4 0
2538 444 1 4.1499999999999998e-01 3.1259616952078422e+00 1.6257153872147256e-01 6.2728561433138905e+00 -2 5 0
323 444 1 4.1499999999999998e-01 2.1244050391676844e-01 7.1097937040953485e-01 9.5952740594044403e+00 3 0 0
324 444 1 4.1499999999999998e-01 9.2905423897589101e-01 1.5280649189468797e-02 8.4575732757504465e+00 3 0 0
3028 444 3 1.0000000000000000e+00 7.8758169084986107e-01 5.0041922186325110e+00 1.2123854346486132e+01 0 1 0
2612 444 1 4.1499999999999998e-01 3.4307146249776008e+00 2.2818812352267113e+00 8.7220849146406358e+00 2 -1 0
501 444 1 4.1499999999999998e-01 3.5478474562505000e+00 5.4290859609846231e+00 1.0409715209134893e+01 2 0 0
499 444 2 -8.2999999999999996e-01 2.6638404565481539e+00 5.7957001110445683e+00 1.0428623314691771e+01 2 0 0
2558 444 1 4.1499999999999998e-01 4.3244879989953846e+00 1.6815095350347273e+00 1.3446795199345667e+01 -1 3 0
1223 444 1 4.1499999999999998e-01 2.7221212804786883e+00 4.1345304670836547e-01 1.0466556895479775e+01 0 2 0
2559 444 1 4.1499999999999998e-01 3.5305764304349050e+00 7.9111915307269165e-01 1.2514698037881884e+01 -1 3 0
500 444 1 4.1499999999999998e-01 2.6818263687153991e+00 6.4991244641673260e+00 9.7796992375095133e+00 2 0 0
2557 444 2 -8.2999999999999996e-01 3.6455509313834717e+00 1.0068002021107119e+00 1.3440168314009968e+01 -1 3 0
2126 444 1 4.1499999999999998e-01 1.9675405311178420e+00 2.2433580602060039e+00 1.4407721207357289e+01 4 1 0
2503 444 2 -8.2999999999999996e-01 1.5604853351155377e+00 2.7876058224861611e+00 1.1067246802796415e+01 5 2 0
2505 444 1 4.1499999999999998e-01 9.3310163472539331e-01 2.1201669648661898e+00 1.0789493359725096e+01 5 2 0
1468 444 2 -8.2999999999999996e-01 3.1187348835229831e+00 5.4735819084882449e+00 1.3335020890017670e+01 -1 2 0
1469 444 1 4.1499999999999998e-01 4.0018477990422934e+00 5.4768930959420601e+00 1.2965788137908488e+01 -1 2 0
1470 444 1 4.1499999999999998e-01 3.0119741222729344e+00 6.3479274294830175e+00 1.3709659525050126e+01 -1 2 0
2926 444 2 -8.2999999999999996e-01 5.2722233632796147e+00 3.5359125451239666e+00 1.4154844941708435e+01 3 1 0
2504 444 1 4.1499999999999998e-01 1.8865657716915525e+00 3.1652175975247694e+00 1.0250354654699580e+01 5 2 0
2611 444 2 -8.2999999999999996e-01 4.1763835348734144e+00 2.3511453699335250e+00 9.3182494954274500e+00 2 -1 0
2125 444 2 -8.2999999999999996e-01 1.3186964101873526e+00 2.3627354799271747e+00 1.5101249985200436e+01 4 1 0
2613 444 1 4.1499999999999998e-01 4.7200438315689457e+00 3.0439070207170515e+00 8.9430873595415665e+00 2 -1 0
116 444 1 4.1499999999999998e-01 2.5493925914465905e+00 5.0417695372686966e+00 1.5215703823055909e+01 2 -6 0
2127 444 1 4.1499999999999998e-01 7.3066323700103419e-01 1.6128163978331789e+00 1.5011415578694569e+01 4 1 0
1074 444 1 4.1499999999999998e-01 1.9928469497000461e+00 7.8781104240950715e+00 8.2488367167239449e+00 5 0 0
629 444 1 4.1499999999999998e-01 1.6697469813856211e-01 3.6704097313895976e+00 1.4906305526241969e+01 0 -2 0
1224 444 1 4.1499999999999998e-01 4.1601713859815987e+00 8.7933455122944981e-01 1.0383722490003368e+01 0 2 0
322 444 2 -8.2999999999999996e-01 9.6113587956465063e-01 1.4564664522244664e-01 9.4053112707177178e+00 3 0 0
1072 444 2 -8.2999999999999996e-01 2.8750657381633458e+00 7.7596054081802839e+00 8.6008002880088448e+00 5 0 0
2928 444 1 4.1499999999999998e-01 5.2797877920396710e+00 4.4176503220727072e+00 1.3782402810930979e+01 3 1 0
412 444 2 -8.2999999999999996e-01 1.4333860679280914e+00 7.6816791147462133e+00 1.4375899023651407e+01 2 2 0
413 444 1 4.1499999999999998e-01 5.3995956540494994e-01 7.5657969869104367e+00 1.4052491744279607e+01 2 2 0
1222 444 2 -8.2999999999999996e-01 3.5894668993641634e+00 2.6275164637955328e-01 1.0842366944940133e+01 0 2 0
117 444 1 4.1499999999999998e-01 2.2642433889992324e+00 3.8029085978961112e+00 1.6037779692689686e+01 2 -6 0
1825 444 2 -8.2999999999999996e-01 4.6148452485608340e+00 4.7024956934826010e+00 1.8308149759123758e+01 -4 4 0
1827 444 1 4.1499999999999998e-01 4.1245633027933071e+00 5.0638166752997869e+00 1.7569703152503859e+01 -4 4 0
1843 444 2 -8.2999999999999996e-01 1.6801065080622175e+00 4.2352564975923475e+00 1.9555728479228858e+01 0 -1 0
286 444 2 -8.2999999999999996e-01 3.9567473257736112e+00 1.5759927879775357e+00 1.8066245544304284e+01 2 0 0
288 444 1 4.1499999999999998e-01 4.7597762267989383e+00 1.8552967042939819e+00 1.7626511826734191e+01 2 0 0
287 444 1 4.1499999999999998e-01 3.8009585048632619e+00 2.2473115270431827e+00 1.8730544515421304e+01 2 0 0
115 444 2 -8.2999999999999996e-01 2.5814557918200753e+00 4.7030938264282565e+00 1.6110412241882536e+01 2 -6 0
2388 444 1 4.1499999999999998e-01 5.3332030681112863e-01 7.3740475389382709e+00 1.9623887525872775e+01 3 -1 0
1844 444 1 4.1499999999999998e-01 9.9634271065820623e-01 3.6797877917021382e+00 1.9930099174942818e+01 0 -1 0
2932 444 2 -8.2999999999999996e-01 1.7927821588942450e+00 7.1498248789492518e+00 1.6983983066234948e+01 8 -1 0
2933 444 1 4.1499999999999998e-01 2.1006473480295780e+00 6.2437477193091979e+00 1.7005798911574917e+01 8 -1 0
2934 444 1 4.1499999999999998e-01 1.9559864718255835e+00 7.4371753048957379e+00 1.6085636352453530e+01 8 -1 0
1845 444 1 4.1499999999999998e-01 1.2625820666870162e+00 5.0897560731758347e+00 1.9447397202238424e+01 0 -1 0
1826 444 1 4.1499999999999998e-01 3.9560983037124582e+00 4.2506137113717370e+00 1.8835489751813544e+01 -4 4 0
2477 444 1 4.1499999999999998e-01 1.3163115148471716e-01 1.9247680321052441e+00 1.7323202073922957e+01 0 0 0
2771 444 1 4.1499999999999998e-01 5.2144807645631870e+00 5.7908120137351533e+00 1.9329774853126853e+01 1 3 0
2478 444 1 4.1499999999999998e-01 4.0354695351354053e-02 3.1838746683825763e+00 1.8158794256007305e+01 0 0 0
3084 444 4 0.0000000000000000e+00 3.4729999999999999e+00 9.7467000000000006e+00 0.0000000000000000e+00 0 0 0
3085 444 4 -7.4069999999999997e-02 3.4708899999999998e+00 9.7495600000000007e+00 3.5749200000000001e+00 0 0 0
3089 444 4 0.0000000000000000e+00 1.6560500000000000e+00 9.7467000000000006e+00 1.8169999999999999e+00 0 0 0
3095 444 4 0.0000000000000000e+00 5.2898399999999999e+00 9.7467000000000006e+00 1.8169999999999999e+00 0 0 0
3105 444 4 -7.4069999999999997e-02 1.6594700000000000e+00 1.1560710000000000e+01 3.5753400000000002e+00 0 0 0
3106 444 4 0.0000000000000000e+00 3.4729999999999999e+00 1.1563549999999999e+01 1.8169999999999999e+00 0 0 0
3107 444 4 0.0000000000000000e+00 1.6560500000000000e+00 1.3380500000000000e+01 1.8169999999999999e+00 0 0 0
3110 444 4 0.0000000000000000e+00 5.2898399999999999e+00 1.1563549999999999e+01 0.0000000000000000e+00 0 0 0
3111 444 4 -7.4069999999999997e-02 5.2859600000000002e+00 1.1564480000000000e+01 3.5751400000000002e+00 0 0 0
3113 444 4 0.0000000000000000e+00 5.2898399999999999e+00 1.3380500000000000e+01 1.8169999999999999e+00 0 0 0
3116 444 4 0.0000000000000000e+00 1.6560500000000000e+00 1.1563549999999999e+01 0.0000000000000000e+00 0 0 0
3122 444 4 0.0000000000000000e+00 1.6560500000000000e+00 1.5197450000000000e+01 0.0000000000000000e+00 0 0 0
3123 444 4 -7.4069999999999997e-02 1.6457500000000000e+00 1.5205399999999999e+01 3.5737800000000002e+00 0 0 0
3124 444 4 0.0000000000000000e+00 3.4729999999999999e+00 1.5197450000000000e+01 1.8169999999999999e+00 0 0 0
3130 444 4 -7.4069999999999997e-02 3.4738799999999999e+00 1.3377720000000000e+01 3.5753400000000002e+00 0 0 0
3131 444 4 0.0000000000000000e+00 3.4729999999999999e+00 1.3380500000000000e+01 0.0000000000000000e+00 0 0 0
3132 444 4 0.0000000000000000e+00 5.2898399999999999e+00 1.5197450000000000e+01 0.0000000000000000e+00 0 0 0
3157 444 4 -7.4069999999999997e-02 5.3039500000000004e+00 1.5210540000000000e+01 3.5747000000000000e+00 0 0 0
1651 444 2 -8.2999999999999996e-01 1.1180519276644494e+00 1.0716959246066015e+01 6.7870174506485164e+00 -1 -4 0
1653 444 1 4.1499999999999998e-01 2.7520712272821612e-01 1.1168662086760087e+01 6.7444721712456355e+00 -1 -4 0
1652 444 1 4.1499999999999998e-01 1.7552704371187764e+00 1.1370198086116144e+01 6.4981166188275958e+00 -1 -4 0
1080 444 1 4.1499999999999998e-01 2.2449108268577098e+00 1.5215631916600881e+01 6.4490185720297921e+00 2 1 0
1078 444 2 -8.2999999999999996e-01 3.0922802670643077e+00 1.5397559220925297e+01 6.8553440221766229e+00 2 1 0
1309 444 2 -8.2999999999999996e-01 7.4838725444191612e-01 1.4374283890290604e+01 6.5095225096872191e+00 -1 1 0
1675 444 2 -8.2999999999999996e-01 4.2990609334335925e+00 1.0150378508877710e+01 7.1389549631816722e+00 -1 -4 0
1310 444 1 4.1499999999999998e-01 3.3004721012685700e-01 1.3516332832540616e+01 6.4378010429999915e+00 -1 1 0
1695 444 1 4.1499999999999998e-01 7.6406219135493314e-01 8.5674227398427316e+00 6.5082180875590510e+00 1 2 0
662 444 1 4.1499999999999998e-01 4.0668600651156757e+00 1.3319306546457179e+01 6.6796549003763275e+00 3 -1 0
1677 444 1 4.1499999999999998e-01 3.4905793943211396e+00 1.0000575793767585e+01 6.6489051064104219e+00 -1 -4 0
1676 444 1 4.1499999999999998e-01 4.4069494390056656e+00 1.1101479592558151e+01 7.1389789205106835e+00 -1 -4 0
2034 444 1 4.1499999999999998e-01 4.9566757825935133e+00 1.5741749250968507e+01 7.3273372121017903e+00 -3 5 0
661 444 2 -8.2999999999999996e-01 4.7711920919441058e+00 1.2788554120879065e+01 7.0517447970122742e+00 3 -1 0
1079 444 1 4.1499999999999998e-01 3.1929645524211412e+00 1.6346895976351650e+01 6.7856660449719355e+00 2 1 0
1311 444 1 4.1499999999999998e-01 2.0972858003845327e-01 1.4950055605175717e+01 5.9667833195828415e+00 -1 1 0
564 444 1 4.1499999999999998e-01 4.7235840553242632e+00 1.3596029744277185e+01 1.0715208571484398e+01 0 -5 0
508 444 2 -8.2999999999999996e-01 5.1296440939175207e+00 8.4170715164730847e+00 1.2537283186595671e+01 -1 0 0
393 444 1 4.1499999999999998e-01 6.9500731134435079e-01 1.0196545425732042e+01 9.2361144907799435e+00 2 -4 0
2489 444 1 4.1499999999999998e-01 1.8164734459479948e+00 9.8317995672040475e+00 1.2175514949311420e+01 -3 -2 0
2490 444 1 4.1499999999999998e-01 1.3125770679027084e+00 1.0777766808276356e+01 1.3244687332149919e+01 -3 -2 0
2488 444 2 -8.2999999999999996e-01 1.8263608112536600e+00 9.9796418543003149e+00 1.3121177108533328e+01 -3 -2 0
309 444 1 4.1499999999999998e-01 2.8363202701027386e+00 1.3761849269109822e+01 1.5214190905808406e+01 2 -2 0
215 444 1 4.1499999999999998e-01 3.0240069147612031e-01 1.2785015796736504e+01 1.2225219097697291e+01 0 2 0
214 444 2 -8.2999999999999996e-01 6.6266827785569227e-01 1.2693780721794736e+01 1.3107327614036842e+01 0 2 0
601 444 2 -8.2999999999999996e-01 1.7789281102514198e+00 1.5633963649779590e+01 1.4613359190984886e+01 4 1 0
216 444 1 4.1499999999999998e-01 1.4576479712165920e+00 1.3226843379932687e+01 1.3098195127150806e+01 0 2 0
308 444 1 4.1499999999999998e-01 2.1129767464321993e+00 1.2642421641962468e+01 1.4496171994830638e+01 2 -2 0
312 444 1 4.1499999999999998e-01 3.8589736871066949e+00 1.0658762688991589e+01 1.0302887836372610e+01 1 0 0
307 444 2 -8.2999999999999996e-01 2.8196968459681107e+00 1.2809462222672119e+01 1.5119771443580975e+01 2 -2 0
2454 444 1 4.1499999999999998e-01 2.0843069836213703e+00 1.4028144606392560e+01 1.1370688385778726e+01 -7 -1 0
1294 444 2 -8.2999999999999996e-01 3.9014168796436732e+00 1.2258539055979103e+01 9.4973117052286931e+00 -2 2 0
1295 444 1 4.1499999999999998e-01 3.1184311060124137e+00 1.2780703192298970e+01 9.6719819546042896e+00 -2 2 0
1296 444 1 4.1499999999999998e-01 4.1944173665438891e+00 1.2547101636375540e+01 8.6329540443146939e+00 -2 2 0
311 444 1 4.1499999999999998e-01 3.5662986166524853e+00 9.2242126724784494e+00 9.9177862915609758e+00 1 0 0
318 444 1 4.1499999999999998e-01 3.4195174283071139e-01 1.3086627975473354e+01 9.8547459609235908e+00 4 -2 0
2452 444 2 -8.2999999999999996e-01 2.4146309974491116e+00 1.4272126680951120e+01 1.2235322038496777e+01 -7 -1 0
310 444 2 -8.2999999999999996e-01 3.6655823285267295e+00 9.7990509891050941e+00 1.0676690705297537e+01 1 0 0
602 444 1 4.1499999999999998e-01 2.3712161722978808e+00 1.5603098588752282e+01 1.3862044336037512e+01 4 1 0
603 444 1 4.1499999999999998e-01 9.3098157548567362e-01 1.5875539141241903e+01 1.4240720360551508e+01 4 1 0
2532 444 1 4.1499999999999998e-01 1.8940381282226557e+00 1.4554043914914299e+01 8.5237655155823031e+00 2 -4 0
509 444 1 4.1499999999999998e-01 5.1704111085875546e+00 8.7781660177352183e+00 1.1651743445739021e+01 -1 0 0
414 444 1 4.1499999999999998e-01 1.6481005806702196e+00 8.5908557116554718e+00 1.4167266698996904e+01 2 2 0
1578 444 1 4.1499999999999998e-01 4.4695260402669703e+00 1.2360028741643038e+01 1.4691033601633269e+01 2 3 0
2453 444 1 4.1499999999999998e-01 3.2660576788401130e+00 1.4673859982206494e+01 1.2062361879651567e+01 -7 -1 0
2531 444 1 4.1499999999999998e-01 1.2733968621192404e+00 1.5227824719983222e+01 9.7290534674645297e+00 2 -4 0
2530 444 2 -8.2999999999999996e-01 1.8607053309355859e+00 1.4514344452508865e+01 9.4795608574063603e+00 2 -4 0
1576 444 2 -8.2999999999999996e-01 5.4041493213617047e+00 1.2224918461400582e+01 1.4534644516283667e+01 2 3 0
562 444 2 -8.2999999999999996e-01 5.4387765376747490e+00 1.4199123382676941e+01 1.0917717102047231e+01 0 -5 0
510 444 1 4.1499999999999998e-01 4.2894092335248928e+00 8.7199581886513595e+00 1.2881516769596143e+01 -1 0 0
1599 444 1 4.1499999999999998e-01 5.0332578644600712e-01 1.4365042893605152e+01 1.8848539773313615e+01 1 -3 0
1982 444 1 4.1499999999999998e-01 6.5154758144666403e-01 8.2741078002205803e+00 1.7939368010760884e+01 2 1 0
1814 444 1 4.1499999999999998e-01 5.4769659002233384e-01 1.0686843212892640e+01 1.8701425770494932e+01 -2 1 0
1597 444 2 -8.2999999999999996e-01 1.2456288917599920e+00 1.4117704952026971e+01 1.9399940201103011e+01 1 -3 0
1852 444 2 -8.2999999999999996e-01 2.8342568150156420e+00 1.1101807352760881e+01 1.7119008336274963e+01 -2 0 0
1854 444 1 4.1499999999999998e-01 3.0315535583336595e+00 1.1500324158352027e+01 1.6271369801397913e+01 -2 0 0
1815 444 1 4.1499999999999998e-01 1.2097422300488223e+00 1.1841359796416933e+01 1.7979842650532049e+01 -2 1 0
1598 444 1 4.1499999999999998e-01 1.2198289968231462e+00 1.3161110948203468e+01 1.9422182868695764e+01 1 -3 0
1853 444 1 4.1499999999999998e-01 3.4762436297743258e+00 1.0397454241549170e+01 1.7208292617957561e+01 -2 0 0
1789 444 2 -8.2999999999999996e-01 3.7287162621601415e+00 1.4783841761183057e+01 1.9728281271907299e+01 -4 6 0
1790 444 1 4.1499999999999998e-01 2.8687170216869986e+00 1.4365554139624033e+01 1.9769130402795234e+01 -4 6 0
1813 444 2 -8.2999999999999996e-01 5.4529223887576128e-01 1.1642027921696263e+01 1.8639391644865878e+01 -2 1 0
2287 444 2 -8.2999999999999996e-01 5.3816722496708005e+00 9.5552196578055035e+00 1.6744189093123790e+01 0 -4 0
1791 444 1 4.1499999999999998e-01 3.5408452857975194e+00 1.5698887699010026e+01 1.9519409785310220e+01 -4 6 0
134 444 1 4.1499999999999998e-01 4.9166055873199204e+00 1.3438285963501471e+01 1.9023211738849330e+01 2 -2 0
1981 444 2 -8.2999999999999996e-01 4.5843666408063297e-02 8.5908791727717855e+00 1.8609450449138592e+01 2 1 0
3120 444 4 0.0000000000000000e+00 3.4729999999999999e+00 1.7014299999999999e+01 0.0000000000000000e+00 0 0 0
3121 444 4 -7.4069999999999997e-02 3.4735499999999999e+00 1.7014030000000002e+01 3.5709300000000002e+00 0 0 0
3125 444 4 0.0000000000000000e+00 1.6560500000000000e+00 1.7014299999999999e+01 1.8169999999999999e+00 0 0 0
3133 444 4 0.0000000000000000e+00 5.2898399999999999e+00 1.7014299999999999e+01 1.8169999999999999e+00 0 0 0
3140 444 4 0.0000000000000000e+00 3.4729999999999999e+00 2.0648199999999999e+01 0.0000000000000000e+00 0 0 0
3141 444 4 -7.4069999999999997e-02 3.4708899999999998e+00 2.0651060000000001e+01 3.5749200000000001e+00 0 0 0
3142 444 4 0.0000000000000000e+00 1.6560500000000000e+00 1.8831250000000001e+01 0.0000000000000000e+00 0 0 0
3143 444 4 -7.4069999999999997e-02 1.6436400000000000e+00 1.8819379999999999e+01 3.5731700000000002e+00 0 0 0
3144 444 4 0.0000000000000000e+00 3.4729999999999999e+00 1.8831250000000001e+01 1.8169999999999999e+00 0 0 0
3145 444 4 0.0000000000000000e+00 1.6560500000000000e+00 2.0648199999999999e+01 1.8169999999999999e+00 0 0 0
3148 444 4 0.0000000000000000e+00 5.2898399999999999e+00 1.8831250000000001e+01 0.0000000000000000e+00 0 0 0
3149 444 4 -7.4069999999999997e-02 5.3014200000000002e+00 1.8821480000000001e+01 3.5736800000000000e+00 0 0 0
3151 444 4 0.0000000000000000e+00 5.2898399999999999e+00 2.0648199999999999e+01 1.8169999999999999e+00 0 0 0
3161 444 4 -7.4069999999999997e-02 1.6594700000000000e+00 2.2462209999999999e+01 3.5753400000000002e+00 0 0 0
3162 444 4 0.0000000000000000e+00 3.4729999999999999e+00 2.2465050000000002e+01 1.8169999999999999e+00 0 0 0
3163 444 4 0.0000000000000000e+00 1.6560500000000000e+00 2.4282000000000000e+01 1.8169999999999999e+00 0 0 0
3166 444 4 0.0000000000000000e+00 5.2898399999999999e+00 2.2465050000000002e+01 0.0000000000000000e+00 0 0 0
3167 444 4 -7.4069999999999997e-02 5.2859600000000002e+00 2.2465979999999998e+01 3.5751400000000002e+00 0 0 0
3169 444 4 0.0000000000000000e+00 5.2898399999999999e+00 2.4282000000000000e+01 1.8169999999999999e+00 0 0 0
3172 444 4 0.0000000000000000e+00 1.6560500000000000e+00 2.2465050000000002e+01 0.0000000000000000e+00 0 0 0
3186 444 4 -7.4069999999999997e-02 3.4738799999999999e+00 2.4279219999999999e+01 3.5753400000000002e+00 0 0 0
3187 444 4 0.0000000000000000e+00 3.4729999999999999e+00 2.4282000000000000e+01 0.0000000000000000e+00 0 0 0
1959 444 1 4.1499999999999998e-01 3.4354391030933429e+00 1.8075997138788082e+01 5.8852251476088693e+00 -1 0 0
2963 444 1 4.1499999999999998e-01 1.3828612363664479e+00 2.0896312187555132e+01 6.0175816183988111e+00 1 3 0
2962 444 2 -8.2999999999999996e-01 2.1574124400196806e+00 2.0591645356787733e+01 6.4903188451099751e+00 1 3 0
2179 444 2 -8.2999999999999996e-01 2.0620206935747549e+00 2.3433210719861417e+01 7.3963836517980495e+00 -2 0 0
2180 444 1 4.1499999999999998e-01 2.8317936192487481e+00 2.2867459302578421e+01 7.4564419121301455e+00 -2 0 0
2487 444 1 4.1499999999999998e-01 4.5321646499254546e+00 2.2983608707615534e+01 6.6254517823720791e+00 -2 -3 0
2485 444 2 -8.2999999999999996e-01 4.5706521590428713e+00 2.2055113411121269e+01 6.8549012382366046e+00 -2 -3 0
1957 444 2 -8.2999999999999996e-01 3.0538238524976706e+00 1.8099634089066356e+01 6.7627460556729933e+00 -1 0 0
2964 444 1 4.1499999999999998e-01 2.7499660629435039e+00 2.1343384594762501e+01 6.4898590998307544e+00 1 3 0
1958 444 1 4.1499999999999998e-01 2.8380141053150529e+00 1.9021143147925081e+01 6.9058512084972543e+00 -1 0 0
2383 444 2 -8.2999999999999996e-01 3.9447208555567709e-01 1.7926704779430306e+01 7.2611096477044823e+00 0 2 0
2384 444 1 4.1499999999999998e-01 1.2915754045628742e+00 1.7618686410651584e+01 7.1324142967478075e+00 0 2 0
2181 444 1 4.1499999999999998e-01 2.0850125654590892e+00 2.3775674540103790e+01 6.5028390826000955e+00 -2 0 0
2798 444 1 4.1499999999999998e-01 4.3657593808067041e+00 1.7084791188664468e+01 1.1580770464584001e+01 1 0 0
2508 444 1 4.1499999999999998e-01 4.3593732570897172e+00 1.7197990154299944e+01 9.0962552297712556e+00 3 0 0
1951 444 2 -8.2999999999999996e-01 2.7301833238870619e+00 2.3785230894013964e+01 1.0752049288298528e+01 -3 2 0
2799 444 1 4.1499999999999998e-01 3.4901621710075998e+00 1.7659123458804498e+01 1.2674098930596420e+01 1 0 0
1894 444 2 -8.2999999999999996e-01 2.1233899101997933e+00 1.9118724984451312e+01 1.2994650032649215e+01 1 -1 0
869 444 1 4.1499999999999998e-01 1.0853583830186091e+00 1.8772037932761670e+01 1.1647229696043299e+01 -2 -4 0
2030 444 1 4.1499999999999998e-01 7.2102589187770083e-01 2.1800987779469704e+01 9.7596709170360416e+00 1 4 0
1745 444 1 4.1499999999999998e-01 4.7987962200520098e+00 2.0862032460731758e+01 8.1856160575212815e+00 2 -2 0
1952 444 1 4.1499999999999998e-01 3.2277998089628053e+00 2.4094978179728738e+01 9.9953020961886949e+00 -3 2 0
870 444 1 4.1499999999999998e-01 8.5461199281667510e-01 1.9466888326587821e+01 1.0322150748926861e+01 -2 -4 0
1895 444 1 4.1499999999999998e-01 2.5177705381769799e+00 1.9943595258072634e+01 1.2711302527346986e+01 1 -1 0
24 444 1 4.1499999999999998e-01 2.7821944638447458e+00 2.2382313663155941e+01 1.1712195335939056e+01 5 -3 0
2591 444 1 4.1499999999999998e-01 1.4973116786948601e+00 2.2461072328284970e+01 1.4731294313620825e+01 -2 1 0
1889 444 1 4.1499999999999998e-01 2.7730663819797448e+00 2.0524664603215971e+01 9.3466302003861514e+00 0 -2 0
1896 444 1 4.1499999999999998e-01 2.5792658488391100e+00 1.8901612202138583e+01 1.3807835840443468e+01 1 -1 0
23 444 1 4.1499999999999998e-01 2.2980925771945615e+00 2.1989923471121944e+01 1.3091894730335634e+01 5 -3 0
1890 444 1 4.1499999999999998e-01 1.6172753645330444e+00 2.0612959665690603e+01 8.3728507354805597e+00 0 -2 0
2590 444 2 -8.2999999999999996e-01 8.4987596615426786e-01 2.1771511206969770e+01 1.4584442801414852e+01 -2 1 0
1744 444 2 -8.2999999999999996e-01 4.9467686720670221e+00 2.0090536661035362e+01 8.7325440758030375e+00 2 -2 0
22 444 2 -8.2999999999999996e-01 2.8289735822132229e+00 2.1678204330256328e+01 1.2358936100182071e+01 5 -3 0
2507 444 1 4.1499999999999998e-01 4.3377157813729870e+00 1.8587674159104147e+01 9.6964256073008190e+00 3 0 0
1888 444 2 -8.2999999999999996e-01 1.8169859400179320e+00 2.0508743170853151e+01 9.3031665687456808e+00 0 -2 0
2592 444 1 4.1499999999999998e-01 1.0019590196302077e+00 2.1144924507374469e+01 1.5291898089287926e+01 -2 1 0
1543 444 2 -8.2999999999999996e-01 2.5330605424547086e+00 2.3931966574205482e+01 1.4901589703095528e+01 3 -1 0
1544 444 1 4.1499999999999998e-01 3.4068255881355940e+00 2.4305563733538307e+01 1.4786735077144161e+01 3 -1 0
2506 444 2 -8.2999999999999996e-01 4.4051221939832832e+00 1.7662370116858661e+01 9.9320126550101460e+00 3 0 0
2029 444 2 -8.2999999999999996e-01 3.9993930994323676e-02 2.2449207862930230e+01 9.9392238048726540e+00 1 4 0
1545 444 1 4.1499999999999998e-01 2.1545870212304363e+00 2.4425871395575054e+01 1.5628946327544183e+01 3 -1 0
673 444 2 -8.2999999999999996e-01 4.0168480744041490e+00 1.9238155985981443e+01 1.5542240237618540e+01 1 0 0
2797 444 2 -8.2999999999999996e-01 4.0195532526109519e+00 1.6893096033020285e+01 1.2452335810120594e+01 1 0 0
2405 444 1 4.1499999999999998e-01 4.3062754180534704e+00 2.0623398370256194e+01 1.2992468674097339e+01 0 -1 0
2404 444 2 -8.2999999999999996e-01 4.9735638574741285e+00 1.9966900535417995e+01 1.3192390088365851e+01 0 -1 0
675 444 1 4.1499999999999998e-01 3.6697988419763945e+00 2.0115492934938956e+01 1.5703697484847018e+01 1 0 0
868 444 2 -8.2999999999999996e-01 4.2423915901633791e-01 1.8906976150132163e+01 1.0968300456248127e+01 -2 -4 0
674 444 1 4.1499999999999998e-01 4.6340836678085697e+00 1.9353440389979539e+01 1.4819771143696189e+01 1 0 0
2281 444 2 -8.2999999999999996e-01 1.1022001918501889e+00 2.0441551172888992e+01 1.6921913522392380e+01 -2 0 0
622 444 2 -8.2999999999999996e-01 2.7419893899773098e+00 1.7102083941246082e+01 1.6770574350074014e+01 1 -2 0
1607 444 1 4.1499999999999998e-01 5.1219237606205681e+00 2.0645937545822704e+01 1.8263265232787361e+01 -1 -3 0
624 444 1 4.1499999999999998e-01 2.3390530298619048e+00 1.6457904228041446e+01 1.6188416923787024e+01 1 -2 0
623 444 1 4.1499999999999998e-01 3.0604626951986251e+00 1.7788862730692848e+01 1.6184791082877066e+01 1 -2 0
2283 444 1 4.1499999999999998e-01 8.0560705860469484e-01 1.9546504852181378e+01 1.7086706649217660e+01 -2 0 0
2840 444 1 4.1499999999999998e-01 1.3343696476996258e+00 1.7926913594515369e+01 1.9142974585213739e+01 2 -2 0
49 444 2 -8.2999999999999996e-01 3.2352224050092984e+00 1.7506922275530609e+01 1.9723809524997677e+01 1 0 0
672 444 1 4.1499999999999998e-01 4.5126223837916584e+00 2.3787730239632648e+01 1.8855537219762248e+01 5 0 0
670 444 2 -8.2999999999999996e-01 5.1989792742261418e+00 2.3760084051706627e+01 1.8188917211187881e+01 5 0 0
2839 444 2 -8.2999999999999996e-01 6.6066211195683544e-01 1.7733200829938088e+01 1.8491188303912402e+01 2 -2 0
872 444 1 4.1499999999999998e-01 2.0845743060305364e+00 2.1454034986315879e+01 1.9303798910923575e+01 9 2 0
2841 444 1 4.1499999999999998e-01 1.1291324007370636e+00 1.7282861485571257e+01 1.7788364078599585e+01 2 -2 0
50 444 1 4.1499999999999998e-01 3.7298301000978924e+00 1.7437964055464100e+01 1.8907206577583580e+01 1 0 0
2282 444 1 4.1499999999999998e-01 5.6105887531102250e-01 2.0983277988758491e+01 1.7496309436230010e+01 -2 0 0
1608 444 1 4.1499999999999998e-01 4.9068752348243967e+00 1.9194241340609970e+01 1.8635054755293634e+01 -1 -3 0
873 444 1 4.1499999999999998e-01 3.5060942373368293e+00 2.1165914566252017e+01 1.9737576655285558e+01 9 2 0
1606 444 2 -8.2999999999999996e-01 4.8369983986843010e+00 2.0083140889134878e+01 1.8983202254991738e+01 -1 -3 0
2237 444 1 4.1499999999999998e-01 5.2405389619023515e+00 1.8255380136155477e+01 1.6582942237844033e+01 4 -3 0
3176 444 4 0.0000000000000000e+00 3.4729999999999999e+00 2.7915800000000001e+01 0.0000000000000000e+00 0 0 0
3177 444 4 -7.4069999999999997e-02 3.4735499999999999e+00 2.7915530000000000e+01 3.5709300000000002e+00 0 0 0