LAMMPS data file via write_data, version 11 Aug 2017, timestep = 1000000

3570 atoms
11 atom types
2024 bonds
5 bond types
1018 angles
5 angle types
12 dihedrals
4 dihedral types
9 impropers
1 improper types

0.0000000000000000e+00 3.2704500000000003e+01 xlo xhi
0.0000000000000000e+00 3.2704500000000003e+01 ylo yhi
0.0000000000000000e+00 8.0000000000000000e+01 zlo zhi

Masses

1 1.0079
2 15.9994
3 39.0983
4 63.546
5 15.9994
6 12.011
7 12.011
8 15.9994
9 15.9994
10 15.9994
11 1.0079

Bond Coeffs # harmonic

1 450 0.9572
2 570 1.229
3 450 1.364
4 570 1.229
5 553 0.945

Angle Coeffs # harmonic

1 100 123.32
2 85 124
3 55 104.52
4 35 113
5 100 123.32

Dihedral Coeffs # charmm

1 0.922 1 180 0
2 3.741 2 0 0
3 0.922 1 0 0
4 3.741 2 180 0

Improper Coeffs # umbrella

1 21 0

Atoms # full

3049 444 4 -7.4069999999999997e-02 1.6610100000000001e+00 6.6669999999999996e-01 3.5796100000000002e+00 0 0 0
3050 444 4 0.0000000000000000e+00 3.4729999999999999e+00 6.6205000000000003e-01 1.8169999999999999e+00 0 0 0
3051 444 4 0.0000000000000000e+00 1.6560500000000000e+00 2.4790000000000001e+00 1.8169999999999999e+00 0 0 0
3054 444 4 0.0000000000000000e+00 5.2898399999999999e+00 6.6205000000000003e-01 0.0000000000000000e+00 0 0 0
3055 444 4 -7.4069999999999997e-02 5.2846900000000003e+00 6.5669999999999995e-01 3.5795300000000001e+00 0 0 0
3057 444 4 0.0000000000000000e+00 5.2898399999999999e+00 2.4790000000000001e+00 1.8169999999999999e+00 0 0 0
3060 444 4 0.0000000000000000e+00 1.6560500000000000e+00 6.6205000000000003e-01 0.0000000000000000e+00 0 0 0
3064 444 4 0.0000000000000000e+00 3.4729999999999999e+00 6.1128000000000000e+00 0.0000000000000000e+00 0 0 0
3065 444 4 -7.4069999999999997e-02 3.4729299999999999e+00 6.1130300000000002e+00 3.5792999999999999e+00 0 0 0
3066 444 4 0.0000000000000000e+00 1.6560500000000000e+00 4.2959500000000004e+00 0.0000000000000000e+00 0 0 0
3067 444 4 -7.4069999999999997e-02 1.6506900000000000e+00 4.3012300000000003e+00 3.5749000000000000e+00 0 0 0
3068 444 4 0.0000000000000000e+00 3.4729999999999999e+00 4.2959500000000004e+00 1.8169999999999999e+00 0 0 0
3069 444 4 0.0000000000000000e+00 1.6560500000000000e+00 6.1128000000000000e+00 1.8169999999999999e+00 0 0 0
3074 444 4 -7.4069999999999997e-02 3.4674299999999998e+00 2.4744299999999999e+00 3.5794600000000001e+00 0 0 0
3075 444 4 0.0000000000000000e+00 3.4729999999999999e+00 2.4790000000000001e+00 0.0000000000000000e+00 0 0 0
3076 444 4 0.0000000000000000e+00 5.2898399999999999e+00 4.2959500000000004e+00 0.0000000000000000e+00 0 0 0
3077 444 4 0.0000000000000000e+00 5.2898399999999999e+00 6.1128000000000000e+00 1.8169999999999999e+00 0 0 0
3086 444 4 0.0000000000000000e+00 1.6560500000000000e+00 7.9297500000000003e+00 0.0000000000000000e+00 0 0 0
3087 444 4 -7.4069999999999997e-02 1.6814000000000000e+00 7.9425200000000000e+00 3.5699100000000001e+00 0 0 0
3088 444 4 0.0000000000000000e+00 3.4729999999999999e+00 7.9297500000000003e+00 1.8169999999999999e+00 0 0 0
3092 444 4 0.0000000000000000e+00 5.2898399999999999e+00 7.9297500000000003e+00 0.0000000000000000e+00 0 0 0
3093 444 4 -7.4069999999999997e-02 5.2919900000000002e+00 7.9285199999999998e+00 3.5741399999999999e+00 0 0 0
3101 444 4 -7.4069999999999997e-02 5.2609199999999996e+00 4.2809999999999997e+00 3.5686300000000002e+00 0 0 0
2247 444 1 4.1499999999999998e-01 1.3384442677293984e+00 5.3069860857722642e+00 7.1506133779264109e+00 -2 -2 0
2245 444 2 -8.2999999999999996e-01 1.6534336006311203e+00 4.5693636301762668e+00 7.6730371390616723e+00 -2 -2 0
2548 444 2 -8.2999999999999996e-01 4.4824015579341268e+00 3.8298460015829145e+00 6.7512297293669983e+00 5 2 0
2549 444 1 4.1499999999999998e-01 4.8540212113724435e+00 4.7117479397985500e+00 6.7317243189146483e+00 5 2 0
949 444 2 -8.2999999999999996e-01 4.7868672538242396e-01 9.7916322146718449e-01 7.3304801184435178e+00 2 3 0
950 444 1 4.1499999999999998e-01 6.7014022645687676e-01 7.2860574213327012e-01 6.4267111905265022e+00 2 3 0
1010 444 1 4.1499999999999998e-01 3.1983222461529017e+00 7.1215142869928032e+00 6.5139494580337809e+00 -1 -4 0
1011 444 1 4.1499999999999998e-01 3.7151045896252155e+00 6.7650893082303716e+00 7.8915532648960189e+00 -1 -4 0
1009 444 2 -8.2999999999999996e-01 3.8488955304668844e+00 6.5807925752449581e+00 6.9618402586416286e+00 -1 -4 0
2479 444 2 -8.2999999999999996e-01 4.4006635959724072e+00 1.0048561941831453e+00 7.4268848347635883e+00 0 1 0
864 444 1 4.1499999999999998e-01 5.4088009891044235e+00 7.2114751065056071e+00 7.0892668404028463e+00 2 4 0
2550 444 1 4.1499999999999998e-01 3.6146974251361099e+00 3.9263264890761858e+00 6.3587840717854629e+00 5 2 0
2481 444 1 4.1499999999999998e-01 3.6918277722534469e+00 1.3682820167812437e+00 7.9576442369264750e+00 0 1 0
2480 444 1 4.1499999999999998e-01 4.6947441784298425e+00 1.7372838351839683e+00 6.8853144999330080e+00 0 1 0
34 444 2 -8.2999999999999996e-01 2.1501596392148952e+00 1.4685888482472642e+00 9.2391285800159118e+00 5 3 0
36 444 1 4.1499999999999998e-01 1.6471263376334493e+00 1.3479221542920721e+00 8.4337527679847462e+00 5 3 0
2174 444 1 4.1499999999999998e-01 4.5737660152830645e-01 4.9464839250574461e-01 1.4507902617832272e+01 2 5 0
2246 444 1 4.1499999999999998e-01 2.4755291632853771e+00 4.8785199007388105e+00 8.0535805507171148e+00 -2 -2 0
962 444 1 4.1499999999999998e-01 3.1296686853964872e-01 6.1695414816760277e+00 1.3082319746835553e+01 2 3 0
1176 444 1 4.1499999999999998e-01 3.3815841765429275e+00 1.6020123063581453e+00 1.3509380583022338e+01 -3 -2 0
2220 444 1 4.1499999999999998e-01 4.2330788420509604e+00 4.6397336079443248e+00 1.2796995859519310e+01 -3 0 0
2983 444 2 -8.2999999999999996e-01 3.5434949118609724e+00 3.8110731397322302e+00 9.4086401096745433e+00 1 1 0
2984 444 1 4.1499999999999998e-01 2.8732796593068950e+00 3.1669337918263665e+00 9.6369568565305759e+00 1 1 0
1851 444 1 4.1499999999999998e-01 4.9246967727484980e+00 7.7064130080558069e-01 1.2295504353024750e+01 1 2 0
2985 444 1 4.1499999999999998e-01 4.0110234753746088e+00 3.4196967825109930e+00 8.6707554335774724e+00 1 1 0
843 444 1 4.1499999999999998e-01 5.0915378459629357e-01 2.7984207730063702e+00 1.1475250124586964e+01 -1 0 0
1809 444 1 4.1499999999999998e-01 2.3057225908357619e+00 7.1015233449891415e+00 1.3221335005438409e+01 3 0 0
1849 444 2 -8.2999999999999996e-01 4.8547055487537412e+00 1.2250100798077033e+00 1.3135077464164844e+01 1 2 0
530 444 1 4.1499999999999998e-01 5.1412456192751321e+00 5.3659578104369610e+00 1.5687845469693507e+01 -3 2 0
1175 444 1 4.1499999999999998e-01 1.8721578681918132e+00 1.4857074418749856e+00 1.3508617920822008e+01 -3 -2 0
2218 444 2 -8.2999999999999996e-01 3.5669499962644347e+00 4.7156954844330796e+00 1.3480175536010824e+01 -3 0 0
1174 444 2 -8.2999999999999996e-01 2.5964151232878980e+00 1.9362762006854970e+00 1.3942980713153476e+01 -3 -2 0
2219 444 1 4.1499999999999998e-01 3.2402830583146423e+00 3.8235913459180004e+00 1.3597098187586933e+01 -3 0 0
1808 444 1 4.1499999999999998e-01 2.1678937486298855e+00 5.6675959031308976e+00 1.3686899502930959e+01 3 0 0
1568 444 1 4.1499999999999998e-01 3.0896286811958209e+00 2.2920488004061177e+00 1.5559613324558338e+01 -2 1 0
1807 444 2 -8.2999999999999996e-01 1.7758669957549753e+00 6.5355603505785176e+00 1.3782735719315390e+01 3 0 0
1912 444 2 -8.2999999999999996e-01 1.3699365275556241e+00 1.8883673690096570e-01 1.5818112134698996e+01 0 0 0
633 444 1 4.1499999999999998e-01 4.1992788958758714e-01 7.1261550003269158e-01 1.2248293062410015e+01 3 -1 0
1053 444 1 4.1499999999999998e-01 1.2060784852768087e+00 7.0675553148154044e+00 1.5393286103706847e+01 4 -2 0
631 444 2 -8.2999999999999996e-01 1.0671857906763853e+00 6.7094999246776466e-01 1.1544337826711711e+01 3 -1 0
2661 444 1 4.1499999999999998e-01 3.4423484945097993e+00 7.4107608572263892e+00 1.0756120427399553e+01 0 0 0
2659 444 2 -8.2999999999999996e-01 3.4676259359721628e+00 7.3083489113340008e+00 9.8047505675707551e+00 0 0 0
1604 444 1 4.1499999999999998e-01 4.4643245207495843e+00 4.4621186228544891e+00 1.0679388725054471e+01 -3 8 0
2097 444 1 4.1499999999999998e-01 2.6271008377531424e-01 6.5432848914391268e+00 9.3604912131678120e+00 1 -2 0
1603 444 2 -8.2999999999999996e-01 5.2048172414374410e+00 4.7826879710687384e+00 1.1194303912064807e+01 -3 8 0
35 444 1 4.1499999999999998e-01 1.6144322359199155e+00 1.0615244646403150e+00 9.9199571935951294e+00 5 3 0
2460 444 1 4.1499999999999998e-01 5.3415739504125508e+00 4.2787038520957965e-01 1.9735776684950039e+01 -3 3 0
2310 444 1 4.1499999999999998e-01 1.9634256700443775e-01 7.2312278521350999e+00 1.9156946510055739e+01 -1 2 0
1051 444 2 -8.2999999999999996e-01 1.2352985378488883e+00 7.6920627235440460e+00 1.6118110085591109e+01 4 -2 0
2308 444 2 -8.2999999999999996e-01 7.0724479199006363e-01 6.9412797594387801e+00 1.9912685108315987e+01 -1 2 0
1567 444 2 -8.2999999999999996e-01 3.1413309781686802e+00 2.1751016385938930e+00 1.6508234445374733e+01 -2 1 0
1569 444 1 4.1499999999999998e-01 2.7561740189767838e+00 2.9733267846704887e+00 1.6869790143544016e+01 -2 1 0
872 444 1 4.1499999999999998e-01 5.1081768206296929e-01 4.0294321935987476e+00 1.7207360045651992e+01 2 -1 0
1913 444 1 4.1499999999999998e-01 1.9252360501998040e+00 8.5045175270309592e-01 1.6230593462919771e+01 0 0 0
2108 444 1 4.1499999999999998e-01 2.4099113463483457e+00 6.5634653602037423e+00 1.9902234935561477e+01 -2 -2 0
616 444 2 -8.2999999999999996e-01 3.9923803642809359e+00 4.0564122494135981e+00 1.9674247762347299e+01 5 -3 0
871 444 2 -8.2999999999999996e-01 1.3650854707765825e+00 3.7968679800699152e+00 1.7571190494269981e+01 2 -1 0
618 444 1 4.1499999999999998e-01 3.8151079906868488e+00 4.9733236550053821e+00 1.9464295978984229e+01 5 -3 0
2107 444 2 -8.2999999999999996e-01 3.3495024675446547e+00 6.7462145937610156e+00 1.9903989142197634e+01 -2 -2 0
617 444 1 4.1499999999999998e-01 4.6917594782366789e+00 3.8031461663379909e+00 1.9071788700174668e+01 5 -3 0
2109 444 1 4.1499999999999998e-01 3.4172091431811005e+00 7.6578306733943267e+00 1.9620081049713043e+01 -2 -2 0
873 444 1 4.1499999999999998e-01 1.2576372392749764e+00 3.8945691625714556e+00 1.8517309556204928e+01 2 -1 0
834 444 1 4.1499999999999998e-01 4.7552735740590029e+00 2.6732699541288309e+00 1.6174373590856543e+01 -3 6 0
2044 444 2 -8.2999999999999996e-01 5.4024392470581679e+00 1.4286789479568468e-01 1.7968409988985339e+01 3 -1 0
1052 444 1 4.1499999999999998e-01 2.1201956108950868e+00 7.6066753498055215e+00 1.6472931816270346e+01 4 -2 0
572 444 1 4.1499999999999998e-01 1.3591851702751709e+00 3.5483617778925186e-01 1.9895434287917361e+01 -7 3 0
2046 444 1 4.1499999999999998e-01 4.7938277012193646e+00 7.7086710745428033e-01 1.7579255957795791e+01 3 -1 0
3084 444 4 0.0000000000000000e+00 3.4729999999999999e+00 9.7467000000000006e+00 0.0000000000000000e+00 0 0 0
3085 444 4 -7.4069999999999997e-02 3.4777100000000001e+00 9.7511500000000009e+00 3.5794299999999999e+00 0 0 0
3089 444 4 0.0000000000000000e+00 1.6560500000000000e+00 9.7467000000000006e+00 1.8169999999999999e+00 0 0 0
3095 444 4 0.0000000000000000e+00 5.2898399999999999e+00 9.7467000000000006e+00 1.8169999999999999e+00 0 0 0
3107 444 4 -7.4069999999999997e-02 1.6610100000000001e+00 1.1568199999999999e+01 3.5796100000000002e+00 0 0 0
3108 444 4 0.0000000000000000e+00 3.4729999999999999e+00 1.1563549999999999e+01 1.8169999999999999e+00 0 0 0
3109 444 4 0.0000000000000000e+00 1.6560500000000000e+00 1.3380500000000000e+01 1.8169999999999999e+00 0 0 0
3112 444 4 0.0000000000000000e+00 5.2898399999999999e+00 1.1563549999999999e+01 0.0000000000000000e+00 0 0 0
3113 444 4 -7.4069999999999997e-02 5.2846900000000003e+00 1.1558199999999999e+01 3.5795300000000001e+00 0 0 0
3115 444 4 0.0000000000000000e+00 5.2898399999999999e+00 1.3380500000000000e+01 1.8169999999999999e+00 0 0 0
3118 444 4 0.0000000000000000e+00 1.6560500000000000e+00 1.1563549999999999e+01 0.0000000000000000e+00 0 0 0
3124 444 4 0.0000000000000000e+00 1.6560500000000000e+00 1.5197450000000000e+01 0.0000000000000000e+00 0 0 0
3125 444 4 -7.4069999999999997e-02 1.6506900000000000e+00 1.5202730000000001e+01 3.5749000000000000e+00 0 0 0
3126 444 4 0.0000000000000000e+00 3.4729999999999999e+00 1.5197450000000000e+01 1.8169999999999999e+00 0 0 0
3132 444 4 -7.4069999999999997e-02 3.4674299999999998e+00 1.3375930000000000e+01 3.5794600000000001e+00 0 0 0
3133 444 4 0.0000000000000000e+00 3.4729999999999999e+00 1.3380500000000000e+01 0.0000000000000000e+00 0 0 0
3134 444 4 0.0000000000000000e+00 5.2898399999999999e+00 1.5197450000000000e+01 0.0000000000000000e+00 0 0 0
3159 444 4 -7.4069999999999997e-02 5.2609199999999996e+00 1.5182499999999999e+01 3.5686300000000002e+00 0 0 0
2098 444 2 -8.2999999999999996e-01 3.0199741704487719e+00 1.4397431321239250e+01 6.9719113820563194e+00 3 1 0
2100 444 1 4.1499999999999998e-01 3.7311352117558991e+00 1.5011132854869262e+01 6.7879223056746376e+00 3 1 0
1448 444 1 4.1499999999999998e-01 2.1691577749518354e+00 9.4019022038682731e+00 6.2540734389568069e+00 -1 0 0
1934 444 1 4.1499999999999998e-01 1.5350432198671684e+00 1.2794688657511982e+01 6.4169097623085403e+00 -1 0 0
1933 444 2 -8.2999999999999996e-01 8.8908942170938454e-01 1.2131220104698567e+01 6.6593662281446058e+00 -1 0 0
187 444 2 -8.2999999999999996e-01 3.9469173495612409e+00 1.2103850395424091e+01 7.0746917851662046e+00 -3 -7 0
1487 444 1 4.1499999999999998e-01 4.1242869937695525e+00 9.0017020615582251e+00 6.3404511880664023e+00 -4 -2 0
189 444 1 4.1499999999999998e-01 4.0640199841647462e+00 1.1250652291972052e+01 6.6568730994251286e+00 -3 -7 0
2099 444 1 4.1499999999999998e-01 3.3977426607785262e+00 1.3534467121113092e+01 6.8021599467998000e+00 3 1 0
1935 444 1 4.1499999999999998e-01 4.3454211897223469e-02 1.2545715371453138e+01 6.4881136790738561e+00 -1 0 0
188 444 1 4.1499999999999998e-01 4.8345200306020102e+00 1.2450504578875801e+01 7.1653803549838599e+00 -3 -7 0
1486 444 2 -8.2999999999999996e-01 4.8288867127355193e+00 9.5588679380011410e+00 6.6711129344423492e+00 -4 -2 0
1449 444 1 4.1499999999999998e-01 1.1987618198749241e+00 8.5401537257839237e+00 7.0335709616620017e+00 -1 0 0
1320 444 1 4.1499999999999998e-01 9.9304318494774069e-01 1.5274165676296445e+01 7.6456278091112599e+00 2 4 0
1447 444 2 -8.2999999999999996e-01 2.1020582337531066e+00 8.5673686558209781e+00 6.7180601191288405e+00 -1 0 0
1318 444 2 -8.2999999999999996e-01 2.4117799806341852e-01 1.5696500556159036e+01 7.2302201256690637e+00 2 4 0
1488 444 1 4.1499999999999998e-01 5.4080754843996024e+00 8.9594322329651845e+00 7.1416967233330375e+00 -4 -2 0
1319 444 1 4.1499999999999998e-01 3.9418117325865649e-02 1.5140783843087499e+01 6.4774230115945040e+00 2 4 0
2920 444 2 -8.2999999999999996e-01 4.4291948412158272e-01 1.4860177454892945e+01 1.0717284815842591e+01 8 -3 0
2517 444 1 4.1499999999999998e-01 4.9483041533922583e+00 1.5286462720700031e+01 9.4442188625335515e+00 -1 3 0
1004 444 1 4.1499999999999998e-01 4.3964554144233210e+00 1.4640584005679203e+01 1.5516826679246561e+01 -2 3 0
2412 444 1 4.1499999999999998e-01 3.4274507632837627e+00 1.3502154752318516e+01 1.2261324630233494e+01 6 -1 0
2410 444 2 -8.2999999999999996e-01 3.7341895829722396e+00 1.2815837713983894e+01 1.1668778204560528e+01 6 -1 0
2411 444 1 4.1499999999999998e-01 3.7355953524998209e+00 1.3227743933419449e+01 1.0804739418823019e+01 6 -1 0
860 444 1 4.1499999999999998e-01 1.9343786787269663e+00 1.2627795601714686e+01 1.4281415340384338e+01 2 3 0
1091 444 1 4.1499999999999998e-01 2.4062292074240239e+00 1.4842436998907226e+01 9.6541718785561503e+00 5 -5 0
1090 444 2 -8.2999999999999996e-01 3.3226495457162253e+00 1.4605457332371827e+01 9.5118830213241488e+00 5 -5 0
1003 444 2 -8.2999999999999996e-01 5.3380240901073108e+00 1.4613104888157059e+01 1.5686902751755797e+01 -2 3 0
1092 444 1 4.1499999999999998e-01 3.4292710956258343e+00 1.4619513181272076e+01 8.5607437614844120e+00 5 -5 0
2354 444 1 4.1499999999999998e-01 2.8196535644264182e+00 9.0488755667447514e+00 1.1918698916153534e+01 -3 -3 0
1018 444 2 -8.2999999999999996e-01 4.0774055336687560e+00 1.0426369289454049e+01 9.5052233521355767e+00 0 -1 0
3003 444 1 4.1499999999999998e-01 2.7888201419319052e+00 1.4629370476444922e+01 1.4188822128005411e+01 5 1 0
3001 444 2 -8.2999999999999996e-01 3.0613434058716029e+00 1.4753231305056708e+01 1.3279634919652162e+01 5 1 0
3002 444 1 4.1499999999999998e-01 2.6325928101358085e+00 1.5565141079740217e+01 1.3009067342780366e+01 5 1 0
859 444 2 -8.2999999999999996e-01 1.9873839808029052e+00 1.1680494402238793e+01 1.4408075361915051e+01 2 3 0
437 444 1 4.1499999999999998e-01 3.1695323557765148e-01 9.3007014811115827e+00 1.5793942818678891e+01 0 2 0
861 444 1 4.1499999999999998e-01 1.5663191051855878e+00 1.1310683284285998e+01 1.3632075163409693e+01 2 3 0
1019 444 1 4.1499999999999998e-01 3.6234759798257352e+00 1.0863848937841620e+01 8.7849514721830992e+00 0 -1 0
2355 444 1 4.1499999999999998e-01 4.0360717082763262e+00 8.6743481318412243e+00 1.2738425285271759e+01 -3 -3 0
2875 444 2 -8.2999999999999996e-01 1.9550139914103195e+00 1.0703771502637874e+01 1.1778188781903156e+01 0 2 0
1020 444 1 4.1499999999999998e-01 4.8324962353659782e+00 1.0985558012165809e+01 9.6879199064982409e+00 0 -1 0
438 444 1 4.1499999999999998e-01 8.0281631280325538e-01 1.0733041727088937e+01 1.5728879064469782e+01 0 2 0
2353 444 2 -8.2999999999999996e-01 3.2527893825408043e+00 8.3025151817847416e+00 1.2332911782970649e+01 -3 -3 0
2876 444 1 4.1499999999999998e-01 2.6547696484813499e+00 1.1340723286299594e+01 1.1633734245692768e+01 0 2 0
1125 444 1 4.1499999999999998e-01 3.5750808926049165e+00 1.0926427871046801e+01 1.5227047539058070e+01 -1 2 0
1187 444 1 4.1499999999999998e-01 5.0169747188781662e+00 1.1433975134793918e+01 1.1961272008539117e+01 1 1 0
1858 444 2 -8.2999999999999996e-01 2.6115742698372300e+00 1.4726919294464913e+01 1.5887556912669325e+01 8 -2 0
1123 444 2 -8.2999999999999996e-01 4.3694531567644583e+00 1.0649070086163935e+01 1.5683421048957282e+01 -1 2 0
2877 444 1 4.1499999999999998e-01 1.4524877498415798e+00 1.0710444429691268e+01 1.0963538599208780e+01 0 2 0
2921 444 1 4.1499999999999998e-01 9.8834949800104388e-01 1.5601444800400298e+01 1.0980458179760552e+01 8 -3 0
2660 444 1 4.1499999999999998e-01 3.3921784220515425e+00 8.2001477020267490e+00 9.4652887993362249e+00 0 0 0
2801 444 1 4.1499999999999998e-01 1.6604420111652951e-01 1.2498127703394228e+01 8.3595663837986329e+00 -5 1 0
2802 444 1 4.1499999999999998e-01 1.6984874901220492e-01 1.3261140513783200e+01 9.6671183994786531e+00 -5 1 0
489 444 1 4.1499999999999998e-01 4.2054625564080086e-02 1.3117707844285508e+01 1.7055740733299132e+01 -2 -5 0
2136 444 1 4.1499999999999998e-01 7.8275895182122657e-01 1.5125961391330076e+01 1.8072247069373976e+01 -1 0 0
2746 444 2 -8.2999999999999996e-01 4.2558047237988381e+00 9.1832480592990997e+00 1.9272330447597845e+01 1 -4 0
1124 444 1 4.1499999999999998e-01 4.2039437595328701e+00 1.0859106683317787e+01 1.6602509073596543e+01 -1 2 0
2134 444 2 -8.2999999999999996e-01 1.0617028647560403e+00 1.6037446476380868e+01 1.8159523456936956e+01 -1 0 0
2493 444 1 4.1499999999999998e-01 7.5718949453632689e-01 1.0145784396466192e+01 1.8036227031579166e+01 2 -1 0
1005 444 1 4.1499999999999998e-01 5.4138789228976263e+00 1.4720716046544991e+01 1.6635005333797874e+01 -2 3 0
2747 444 1 4.1499999999999998e-01 4.3873424102357861e+00 1.0131153920289263e+01 1.9252196837804131e+01 1 -4 0
1859 444 1 4.1499999999999998e-01 1.9007466595168778e+00 1.4249875403836567e+01 1.6315791783226931e+01 8 -2 0
2492 444 1 4.1499999999999998e-01 1.6166903170206555e+00 1.0323270509760180e+01 1.9269779821324981e+01 2 -1 0
487 444 2 -8.2999999999999996e-01 9.7226835986161264e-01 1.3211006790871901e+01 1.7261240160868184e+01 -2 -5 0
2003 444 1 4.1499999999999998e-01 4.2714097756625637e+00 1.4454264041128534e+01 1.9134897610391597e+01 0 5 0
2976 444 1 4.1499999999999998e-01 4.4872633187488740e+00 1.2379113011502580e+01 1.9553156714200817e+01 5 -1 0
1423 444 2 -8.2999999999999996e-01 3.0502641209593588e+00 1.3383059333683509e+01 1.9772582695761056e+01 4 5 0
1425 444 1 4.1499999999999998e-01 2.1712920094795640e+00 1.3143097105671814e+01 1.9479226265478683e+01 4 5 0
488 444 1 4.1499999999999998e-01 1.2427860471750392e+00 1.2339492361883458e+01 1.7550230075780132e+01 -2 -5 0
2491 444 2 -8.2999999999999996e-01 1.5857431095019268e+00 1.0521493147102362e+01 1.8333840403453650e+01 2 -1 0
1860 444 1 4.1499999999999998e-01 3.0573403106231862e+00 1.5184274778008351e+01 1.6600543703481538e+01 8 -2 0
2002 444 2 -8.2999999999999996e-01 4.7519178960634907e+00 1.4993297032392167e+01 1.8506575825636585e+01 0 5 0
2748 444 1 4.1499999999999998e-01 4.8665248275750157e+00 8.8422819836865969e+00 1.8618881004058942e+01 1 -4 0
436 444 2 -8.2999999999999996e-01 9.3003644532298924e-02 1.0189283647736758e+01 1.6070529225980785e+01 0 2 0
2974 444 2 -8.2999999999999996e-01 5.1608915924505965e+00 1.1754201412602335e+01 1.9284934317091729e+01 5 -1 0
3122 444 4 0.0000000000000000e+00 3.4729999999999999e+00 1.7014299999999999e+01 0.0000000000000000e+00 0 0 0
3123 444 4 -7.4069999999999997e-02 3.4729299999999999e+00 1.7014530000000001e+01 3.5792999999999999e+00 0 0 0
3127 444 4 0.0000000000000000e+00 1.6560500000000000e+00 1.7014299999999999e+01 1.8169999999999999e+00 0 0 0
3135 444 4 0.0000000000000000e+00 5.2898399999999999e+00 1.7014299999999999e+01 1.8169999999999999e+00 0 0 0
3142 444 4 0.0000000000000000e+00 3.4729999999999999e+00 2.0648199999999999e+01 0.0000000000000000e+00 0 0 0
3143 444 4 -7.4069999999999997e-02 3.4777100000000001e+00 2.0652650000000001e+01 3.5794299999999999e+00 0 0 0
3144 444 4 0.0000000000000000e+00 1.6560500000000000e+00 1.8831250000000001e+01 0.0000000000000000e+00 0 0 0
3145 444 4 -7.4069999999999997e-02 1.6814000000000000e+00 1.8844020000000000e+01 3.5699100000000001e+00 0 0 0
3146 444 4 0.0000000000000000e+00 3.4729999999999999e+00 1.8831250000000001e+01 1.8169999999999999e+00 0 0 0
3147 444 4 0.0000000000000000e+00 1.6560500000000000e+00 2.0648199999999999e+01 1.8169999999999999e+00 0 0 0
3150 444 4 0.0000000000000000e+00 5.2898399999999999e+00 1.8831250000000001e+01 0.0000000000000000e+00 0 0 0
3151 444 4 -7.4069999999999997e-02 5.2919900000000002e+00 1.8830020000000001e+01 3.5741399999999999e+00 0 0 0
3153 444 4 0.0000000000000000e+00 5.2898399999999999e+00 2.0648199999999999e+01 1.8169999999999999e+00 0 0 0
3165 444 4 -7.4069999999999997e-02 1.6610100000000001e+00 2.2469700000000000e+01 3.5796100000000002e+00 0 0 0
3166 444 4 0.0000000000000000e+00 3.4729999999999999e+00 2.2465050000000002e+01 1.8169999999999999e+00 0 0 0
3167 444 4 0.0000000000000000e+00 1.6560500000000000e+00 2.4282000000000000e+01 1.8169999999999999e+00 0 0 0
3170 444 4 0.0000000000000000e+00 5.2898399999999999e+00 2.2465050000000002e+01 0.0000000000000000e+00 0 0 0
3171 444 4 -7.4069999999999997e-02 5.2846900000000003e+00 2.2459700000000002e+01 3.5795300000000001e+00 0 0 0
3173 444 4 0.0000000000000000e+00 5.2898399999999999e+00 2.4282000000000000e+01 1.8169999999999999e+00 0 0 0
3176 444 4 0.0000000000000000e+00 1.6560500000000000e+00 2.2465050000000002e+01 0.0000000000000000e+00 0 0 0
3190 444 4 -7.4069999999999997e-02 3.4674299999999998e+00 2.4277429999999999e+01 3.5794600000000001e+00 0 0 0
3191 444 4 0.0000000000000000e+00 3.4729999999999999e+00 2.4282000000000000e+01 0.0000000000000000e+00 0 0 0
613 444 2 -8.2999999999999996e-01 8.3060388157681753e-01 2.0248529394240432e+01 6.5571571147742693e+00 3 3 0
1636 444 2 -8.2999999999999996e-01 3.8407706674477096e+00 1.9959439917980198e+01 6.6409018478880659e+00 0 3 0
1638 444 1 4.1499999999999998e-01 3.3151069468515866e+00 1.9282316982545066e+01 6.2149745891879942e+00 0 3 0
1637 444 1 4.1499999999999998e-01 4.7173724444187615e+00 1.9579848341372674e+01 6.7018233976277504e+00 0 3 0
1284 444 1 4.1499999999999998e-01 4.1489759874644971e-01 2.3212943890566539e+01 6.3789841444396709e+00 -2 -1 0
614 444 1 4.1499999999999998e-01 1.6866025916627077e+00 2.0492103854183437e+01 6.2047801391541206e+00 3 3 0
2630 444 1 4.1499999999999998e-01 3.1039476185475485e+00 1.6929827290122503e+01 7.0131543400826661e+00 4 2 0
2629 444 2 -8.2999999999999996e-01 2.3555747730849452e+00 1.7504149062047741e+01 7.1754043109724250e+00 4 2 0
607 444 2 -8.2999999999999996e-01 2.1436254478190766e+00 2.3918975631179844e+01 6.7006899008166219e+00 1 1 0
608 444 1 4.1499999999999998e-01 2.9068639530644353e+00 2.3350607143175083e+01 6.5974615250595132e+00 1 1 0
2537 444 1 4.1499999999999998e-01 5.4281911131110157e+00 2.2493995281103995e+01 6.6809453329646535e+00 2 -1 0
2538 444 1 4.1499999999999998e-01 4.3086938521860940e+00 2.1572327231632308e+01 7.1158584134838296e+00 2 -1 0
2536 444 2 -8.2999999999999996e-01 4.5741865310742069e+00 2.2491968529756086e+01 7.1132695801003649e+00 2 -1 0
2631 444 1 4.1499999999999998e-01 1.6923821429601826e+00 1.7217306667157306e+01 6.5476073365163403e+00 4 2 0
615 444 1 4.1499999999999998e-01 6.9708010391954089e-01 1.9347788784051275e+01 6.2620813459102207e+00 3 3 0
2133 444 1 4.1499999999999998e-01 4.9955148043166986e+00 1.7059895607859474e+01 6.2822680042374204e+00 3 -1 0
2131 444 2 -8.2999999999999996e-01 4.7838087163079743e+00 1.6451190948564122e+01 6.9900047484483778e+00 3 -1 0
2326 444 2 -8.2999999999999996e-01 9.2872189855433773e-01 1.7766736991936281e+01 9.6249035600804795e+00 5 1 0
2652 444 1 4.1499999999999998e-01 1.5670037492576829e+00 2.0692658922647254e+01 9.2355383051731170e+00 7 2 0
2820 444 1 4.1499999999999998e-01 3.3011461369893729e+00 2.2588987899708837e+01 1.0816917653207947e+01 -3 4 0
2818 444 2 -8.2999999999999996e-01 2.5069260483589666e+00 2.2559046122915451e+01 1.1350349640818065e+01 -3 4 0
2819 444 1 4.1499999999999998e-01 1.8520133922747100e+00 2.3026797691868982e+01 1.0832151153116930e+01 -3 4 0
985 444 2 -8.2999999999999996e-01 4.6397135107159606e+00 1.7564525780679336e+01 1.1427911643371589e+01 3 1 0
986 444 1 4.1499999999999998e-01 5.0512811314944210e+00 1.8369222301091771e+01 1.1743042313113579e+01 3 1 0
987 444 1 4.1499999999999998e-01 4.9794299673417397e+00 1.6879710745049234e+01 1.2003978352956027e+01 3 1 0
1771 444 2 -8.2999999999999996e-01 4.0088230747938667e+00 2.0936524708039066e+01 1.3214802073222003e+01 4 4 0
1613 444 1 4.1499999999999998e-01 3.6806413549757182e+00 1.8943343939967278e+01 9.8157167120951208e+00 0 3 0
2328 444 1 4.1499999999999998e-01 1.0139132190607265e+00 1.8719330304529485e+01 9.6641455771785694e+00 5 1 0
1069 444 2 -8.2999999999999996e-01 2.1454891697907610e+00 1.6839135490714867e+01 1.1731922116448088e+01 0 -1 0
1614 444 1 4.1499999999999998e-01 3.1667236455363490e+00 1.9167856130889977e+01 8.4095239132030866e+00 0 3 0
1612 444 2 -8.2999999999999996e-01 2.9577150852579432e+00 1.9337988451605938e+01 9.3280023375058239e+00 0 3 0
1772 444 1 4.1499999999999998e-01 3.7361626529796208e+00 2.1253862383395585e+01 1.2353880863184621e+01 4 4 0
1773 444 1 4.1499999999999998e-01 4.2296882279105610e+00 2.1729168929350983e+01 1.3703848043215318e+01 4 4 0
2725 444 2 -8.2999999999999996e-01 4.1664215184825787e-01 2.3560786990922463e+01 9.4975036452800623e+00 0 -6 0
2327 444 1 4.1499999999999998e-01 1.6580355760132828e+00 1.7483074756365795e+01 9.0736605026931922e+00 5 1 0
1814 444 1 4.1499999999999998e-01 2.4616780237821287e+00 2.3518344545766336e+01 1.3263030133136775e+01 -2 3 0
1071 444 1 4.1499999999999998e-01 1.6260702957527147e+00 1.7376042752067026e+01 1.1133452152786589e+01 0 -1 0
1815 444 1 4.1499999999999998e-01 2.2195287338532217e+00 2.3600952595493844e+01 1.4755154333423555e+01 -2 3 0
1083 444 1 4.1499999999999998e-01 4.4688347385090692e+00 2.2384448252959757e+01 8.8794713072903342e+00 2 3 0
1070 444 1 4.1499999999999998e-01 3.0224933755378252e+00 1.7221097084133206e+01 1.1697269061174255e+01 0 -1 0
2727 444 1 4.1499999999999998e-01 4.6750015767365766e-01 2.2656635765145886e+01 9.1874116466566544e+00 0 -6 0
1813 444 2 -8.2999999999999996e-01 2.9180638599084818e+00 2.3597057056347889e+01 1.4100734378670133e+01 -2 3 0
1081 444 2 -8.2999999999999996e-01 4.7739522192751762e+00 2.2253410602863624e+01 9.7772263115771576e+00 2 3 0
1206 444 1 4.1499999999999998e-01 1.2440894914755227e+00 1.7744825754259079e+01 1.2950264246393498e+01 3 1 0
750 444 1 4.1499999999999998e-01 1.4754030236661586e+00 2.1361648651928594e+01 1.2533322234575817e+01 3 6 0
828 444 1 4.1499999999999998e-01 4.5844702603892973e+00 1.8361108767636402e+01 1.4430566938804199e+01 2 0 0
1205 444 1 4.1499999999999998e-01 8.2902157080767169e-01 1.8565217710439263e+01 1.4152999202089292e+01 3 1 0
748 444 2 -8.2999999999999996e-01 5.9545032794397579e-01 2.1055192106294498e+01 1.2752410803451475e+01 3 6 0
2266 444 2 -8.2999999999999996e-01 1.4493780843488253e+00 1.9218830041803120e+01 1.5663191760512465e+01 2 -2 0
2176 444 2 -8.2999999999999996e-01 3.1144645277943472e-01 2.3386658556844157e+01 1.5807638174027923e+01 1 -4 0
749 444 1 4.1499999999999998e-01 7.3949810754045253e-01 2.0280232754470742e+01 1.3295476169114158e+01 3 6 0
2651 444 1 4.1499999999999998e-01 5.0379887656633782e-01 2.0749502371076037e+01 8.1593138329219581e+00 7 2 0
827 444 1 4.1499999999999998e-01 4.2423349343420789e+00 1.9762783244198257e+01 1.4888985070741676e+01 2 0 0
1204 444 2 -8.2999999999999996e-01 4.8228526899130253e-01 1.8152907454793102e+01 1.3361792797936820e+01 3 1 0
826 444 2 -8.2999999999999996e-01 4.6719663002130360e+00 1.8956602255309022e+01 1.5174854572858015e+01 2 0 0
2650 444 2 -8.2999999999999996e-01 6.6300137165713680e-01 2.0965165771348211e+01 9.0782130375898902e+00 7 2 0
661 444 2 -8.2999999999999996e-01 3.3062190880621261e+00 1.7341717199386146e+01 1.8849063824637263e+01 5 -3 0
2267 444 1 4.1499999999999998e-01 9.3424302761477329e-01 1.8698488277322344e+01 1.6279724774315135e+01 2 -2 0
2135 444 1 4.1499999999999998e-01 2.8459337138989438e-01 1.6548867964776715e+01 1.7934176256915883e+01 -1 0 0
2178 444 1 4.1499999999999998e-01 2.8142195251068020e-01 2.2612151715979053e+01 1.6369304681945522e+01 1 -4 0
2268 444 1 4.1499999999999998e-01 2.2916127214151256e+00 1.9344446240641386e+01 1.6100334130634451e+01 2 -2 0