LAMMPS data file via write_data, version 11 Aug 2017, timestep = 1000000

3543 atoms
10 atom types
2024 bonds
5 bond types
1018 angles
5 angle types
12 dihedrals
4 dihedral types
9 impropers
1 improper types

0.0000000000000000e+00 3.2704500000000003e+01 xlo xhi
0.0000000000000000e+00 3.2704500000000003e+01 ylo yhi
0.0000000000000000e+00 8.0000000000000000e+01 zlo zhi

Masses

1 1.0079
2 15.9994
3 39.0983
4 63.546
5 12.011
6 12.011
7 15.9994
8 15.9994
9 15.9994
10 1.0079

Bond Coeffs # harmonic

1 450 0.9572
2 570 1.229
3 450 1.364
4 570 1.229
5 553 0.945

Angle Coeffs # harmonic

1 100 123.32
2 85 124
3 55 104.52
4 35 113
5 100 123.32

Dihedral Coeffs # charmm

1 0.922 1 180 0
2 3.741 2 0 0
3 0.922 1 0 0
4 3.741 2 180 0

Improper Coeffs # umbrella

1 21 0

Atoms # full

3049 444 4 -7.4069999999999997e-02 1.6733100000000001e+00 6.6244999999999998e-01 3.5739600000000000e+00 0 0 0
3050 444 4 0.0000000000000000e+00 3.4729999999999999e+00 6.6205000000000003e-01 1.8169999999999999e+00 0 0 0
3051 444 4 0.0000000000000000e+00 1.6560500000000000e+00 2.4790000000000001e+00 1.8169999999999999e+00 0 0 0
3054 444 4 0.0000000000000000e+00 5.2898399999999999e+00 6.6205000000000003e-01 0.0000000000000000e+00 0 0 0
3055 444 4 -7.4069999999999997e-02 5.2720000000000002e+00 6.6256000000000004e-01 3.5739000000000001e+00 0 0 0
3057 444 4 0.0000000000000000e+00 5.2898399999999999e+00 2.4790000000000001e+00 1.8169999999999999e+00 0 0 0
3060 444 4 0.0000000000000000e+00 1.6560500000000000e+00 6.6205000000000003e-01 0.0000000000000000e+00 0 0 0
3064 444 4 0.0000000000000000e+00 3.4729999999999999e+00 6.1128000000000000e+00 0.0000000000000000e+00 0 0 0
3065 444 4 -7.4069999999999997e-02 3.4735000000000000e+00 6.1126600000000000e+00 3.5822600000000002e+00 0 0 0
3066 444 4 0.0000000000000000e+00 1.6560500000000000e+00 4.2959500000000004e+00 0.0000000000000000e+00 0 0 0
3067 444 4 -7.4069999999999997e-02 1.6849099999999999e+00 4.2826899999999997e+00 3.5755200000000000e+00 0 0 0
3068 444 4 0.0000000000000000e+00 3.4729999999999999e+00 4.2959500000000004e+00 1.8169999999999999e+00 0 0 0
3069 444 4 0.0000000000000000e+00 1.6560500000000000e+00 6.1128000000000000e+00 1.8169999999999999e+00 0 0 0
3074 444 4 -7.4069999999999997e-02 3.4728200000000000e+00 2.4623900000000001e+00 3.5737199999999998e+00 0 0 0
3075 444 4 0.0000000000000000e+00 3.4729999999999999e+00 2.4790000000000001e+00 0.0000000000000000e+00 0 0 0
3076 444 4 0.0000000000000000e+00 5.2898399999999999e+00 4.2959500000000004e+00 0.0000000000000000e+00 0 0 0
3077 444 4 0.0000000000000000e+00 5.2898399999999999e+00 6.1128000000000000e+00 1.8169999999999999e+00 0 0 0
3086 444 4 0.0000000000000000e+00 1.6560500000000000e+00 7.9297500000000003e+00 0.0000000000000000e+00 0 0 0
3087 444 4 -7.4069999999999997e-02 1.6855700000000000e+00 7.9431799999999999e+00 3.5755599999999998e+00 0 0 0
3088 444 4 0.0000000000000000e+00 3.4729999999999999e+00 7.9297500000000003e+00 1.8169999999999999e+00 0 0 0
3092 444 4 0.0000000000000000e+00 5.2898399999999999e+00 7.9297500000000003e+00 0.0000000000000000e+00 0 0 0
3093 444 4 -7.4069999999999997e-02 5.2606200000000003e+00 7.9437499999999996e+00 3.5757500000000002e+00 0 0 0
3101 444 4 -7.4069999999999997e-02 5.2614700000000001e+00 4.2823000000000002e+00 3.5755200000000000e+00 0 0 0
1461 444 1 4.1499999999999998e-01 4.6330006464567379e+00 2.4526245026224589e+00 6.8595584307223643e+00 0 1 0
1058 444 1 4.1499999999999998e-01 2.7471014354193768e+00 3.5576994333248817e+00 7.0567404701330325e+00 3 -1 0
1057 444 2 -8.2999999999999996e-01 2.7609116719628117e+00 2.6012011674798821e+00 7.0906862378894244e+00 3 -1 0
1059 444 1 4.1499999999999998e-01 1.8389311798733128e+00 2.3464527287458945e+00 7.0548090383759527e+00 3 -1 0
2680 444 2 -8.2999999999999996e-01 2.8925735896958900e+00 5.5416653734700780e+00 6.9205973941801098e+00 0 2 0
2682 444 1 4.1499999999999998e-01 2.5972062074255278e+00 5.9217431335629813e+00 6.0932334358905074e+00 0 2 0
2681 444 1 4.1499999999999998e-01 3.8092269820399469e+00 5.8075845540770752e+00 6.9931606753610618e+00 0 2 0
316 444 2 -8.2999999999999996e-01 6.7328534212345770e-01 7.9441619653679059e+00 7.3597890825706394e+00 1 -7 0
2946 444 1 4.1499999999999998e-01 2.6026440648005456e-01 5.2684508144227298e+00 6.5961960983686581e+00 -1 0 0
660 444 1 4.1499999999999998e-01 4.5421131510372986e-01 1.4112051515053055e+00 6.0203746232771316e+00 1 9 0
1061 444 1 4.1499999999999998e-01 2.8047862581391199e+00 6.5955883247897695e-01 6.8223838516497004e+00 5 1 0
658 444 2 -8.2999999999999996e-01 3.5529249421986031e-01 1.7717249006880498e+00 6.9015515476040452e+00 1 9 0
317 444 1 4.1499999999999998e-01 2.5931489375172639e-01 7.8793984530204701e+00 6.4991691536756662e+00 1 -7 0
2017 444 2 -8.2999999999999996e-01 2.7304083821832065e-01 5.4620504805359911e+00 1.1225121925973369e+01 -7 4 0
2957 444 1 4.1499999999999998e-01 2.9694849791686537e+00 1.4943060971670985e+00 1.1755575895717667e+01 0 3 0
2801 444 1 4.1499999999999998e-01 8.0921992824710920e-01 7.2560177662799310e+00 1.4136180866967228e+01 2 4 0
2956 444 2 -8.2999999999999996e-01 2.8978598006604486e+00 1.2717089902642302e+00 1.0827377306871560e+01 0 3 0
891 444 1 4.1499999999999998e-01 7.0991740695936467e-01 1.3414512161303929e+00 1.3769861348330608e+01 2 -2 0
17 444 2 -8.2999999999999996e-01 2.5180439431112173e-01 2.8112526356419290e+00 1.1018035340692167e+01 -3 -1 0
2203 444 2 -8.2999999999999996e-01 2.3945808243553470e+00 4.3336401102397595e+00 1.3704189908594641e+01 1 0 0
3031 444 3 1.0000000000000000e+00 1.6567239764332986e+00 6.3880447243628335e+00 9.1542692377150505e+00 -1 -1 0
889 444 2 -8.2999999999999996e-01 1.0554255409448570e+00 2.1284588511458891e+00 1.3348583360645280e+01 2 -2 0
227 444 1 4.1499999999999998e-01 2.6554155463262683e+00 3.2676693553166252e+00 9.2316671091288338e+00 3 -2 0
2800 444 2 -8.2999999999999996e-01 6.2707402960669711e-01 6.3304647178288214e+00 1.3973680522527850e+01 2 4 0
1356 444 1 4.1499999999999998e-01 1.3107154723366448e+00 8.1470345099628272e-01 9.9089461290723087e+00 1 -6 0
226 444 2 -8.2999999999999996e-01 2.3391990934280873e+00 3.8504382732123972e+00 9.9220434514135114e+00 3 -2 0
228 444 1 4.1499999999999998e-01 1.7332620571843393e+00 3.3123358779560124e+00 1.0431472568308626e+01 3 -2 0
2938 444 1 4.1499999999999998e-01 4.4324096617621205e+00 7.4426145315829908e+00 1.0306505356628644e+01 0 2 0
2205 444 1 4.1499999999999998e-01 1.7883847356544298e+00 3.5943596221743914e+00 1.3657040480355349e+01 1 0 0
2204 444 1 4.1499999999999998e-01 1.8454884693233211e+00 5.0791244996024796e+00 1.3947055815064381e+01 1 0 0
2399 444 1 4.1499999999999998e-01 4.3839271698292936e+00 5.3635543845159397e+00 1.5742800961337508e+01 1 4 0
19 444 1 4.1499999999999998e-01 6.5105492555088307e-01 2.3453769251439929e+00 1.1752740798912878e+01 -3 -1 0
2958 444 1 4.1499999999999998e-01 3.8029284586767029e+00 1.1577620956540007e+00 1.0537378285599253e+01 0 3 0
2400 444 1 4.1499999999999998e-01 3.6215432871521491e+00 4.2732302905752251e+00 1.5020401531113645e+01 1 4 0
211 444 2 -8.2999999999999996e-01 4.8915892369615497e+00 2.1488464977406307e+00 1.2681010561029852e+01 -3 -1 0
2939 444 1 4.1499999999999998e-01 4.7125841128949926e+00 7.7396209245198957e+00 1.1764306874291865e+01 0 2 0
2935 444 2 -8.2999999999999996e-01 4.2809730176708003e+00 7.1070163226916385e+00 1.1190062744832790e+01 0 2 0
1020 444 1 4.1499999999999998e-01 5.3724572291587274e+00 1.7732486260021847e+00 8.4249439670277173e+00 3 2 0
3024 444 3 1.0000000000000000e+00 4.2915853251554790e+00 4.5225482205995133e+00 1.1698453729021193e+01 -2 -1 0
212 444 1 4.1499999999999998e-01 4.8520039973869240e+00 1.8539302778755429e+00 1.3590784885648539e+01 -3 -1 0
1354 444 2 -8.2999999999999996e-01 5.2761327311108086e-01 4.9493955536545547e-01 9.4609115792649217e+00 1 -6 0
1155 444 1 4.1499999999999998e-01 4.6289818104255609e+00 1.1153127882422762e+00 1.5990869232814601e+01 9 2 0
1153 444 2 -8.2999999999999996e-01 5.0193969472414324e+00 1.1264594083320731e+00 1.5116978885602398e+01 9 2 0
2480 444 1 4.1499999999999998e-01 7.2854615986492932e-01 7.8082504217656714e+00 1.1879496223281672e+01 1 3 0
2018 444 1 4.1499999999999998e-01 8.0953825347285388e-02 5.4208570358763222e+00 1.2161945277090839e+01 -7 4 0
2802 444 1 4.1499999999999998e-01 8.4058571387677181e-02 6.0591918740702715e+00 1.4713800243863734e+01 2 4 0
2019 444 1 4.1499999999999998e-01 1.7441138718874072e-01 4.5601487036793742e+00 1.0920034440426885e+01 -7 4 0
2398 444 2 -8.2999999999999996e-01 4.1611245470250404e+00 4.4340813236079795e+00 1.5794489440924304e+01 1 4 0
2091 444 1 4.1499999999999998e-01 4.5200384058763081e+00 7.4327442648636568e+00 1.5127418890803703e+01 -3 2 0
1018 444 2 -8.2999999999999996e-01 5.3755266699142386e+00 1.4513948582825902e+00 9.3264054284367006e+00 3 2 0
1355 444 1 4.1499999999999998e-01 4.4109448072275764e-01 1.0620517617357630e+00 8.6946669314222476e+00 1 -6 0
2089 444 2 -8.2999999999999996e-01 5.3075568562769968e+00 6.9111231454545186e+00 1.4972634249657164e+01 -3 2 0
890 444 1 4.1499999999999998e-01 4.1602654343760148e-01 2.8106940347964415e+00 1.3553414839884553e+01 2 -2 0
647 444 1 4.1499999999999998e-01 5.2424517155838188e+00 5.5915418188204429e+00 9.2040490024205610e+00 0 6 0
563 444 1 4.1499999999999998e-01 2.7328008936981978e+00 5.3232372603695766e-01 1.7857116414177185e+01 1 -2 0
564 444 1 4.1499999999999998e-01 4.2271510295372812e+00 7.6165059383735489e-01 1.7778234433247107e+01 1 -2 0
2015 444 1 4.1499999999999998e-01 1.7191994880932278e+00 1.2224937078826525e+00 1.9880301176550365e+01 -4 -3 0
2563 444 2 -8.2999999999999996e-01 3.0261140858891249e+00 4.5059730448594646e+00 1.8429966396041944e+01 0 -3 0
562 444 2 -8.2999999999999996e-01 3.4552631202021944e+00 6.0714119217108942e-01 1.7233672251438204e+01 1 -2 0
1876 444 2 -8.2999999999999996e-01 2.4707861768215386e-01 4.0924993618318011e+00 1.8187061407983151e+01 3 3 0
2181 444 1 4.1499999999999998e-01 4.3225505878863961e+00 4.7845869303134361e+00 1.9547773906962465e+01 4 5 0
2565 444 1 4.1499999999999998e-01 3.5123241657708006e+00 4.1759503476704793e+00 1.7674375732020284e+01 0 -3 0
2564 444 1 4.1499999999999998e-01 2.1140740329746248e+00 4.2819520172459464e+00 1.8244950944291809e+01 0 -3 0
2016 444 1 4.1499999999999998e-01 6.7031525253358271e-01 3.7616160524642800e-01 1.9190765750028980e+01 -4 -3 0
2014 444 2 -8.2999999999999996e-01 1.5880314861925870e+00 6.4158135017318041e-01 1.9130922977994803e+01 -4 -3 0
2180 444 1 4.1499999999999998e-01 4.9899031057547489e+00 6.0916745944661033e+00 1.9919335089052819e+01 4 5 0
449 444 1 4.1499999999999998e-01 4.0488822802573576e+00 8.0386703866232363e+00 1.8994625615788081e+01 5 1 0
3084 444 4 0.0000000000000000e+00 3.4729999999999999e+00 9.7467000000000006e+00 0.0000000000000000e+00 0 0 0
3085 444 4 -7.4069999999999997e-02 3.4729899999999998e+00 9.7640499999999992e+00 3.5738699999999999e+00 0 0 0
3089 444 4 0.0000000000000000e+00 1.6560500000000000e+00 9.7467000000000006e+00 1.8169999999999999e+00 0 0 0
3095 444 4 0.0000000000000000e+00 5.2898399999999999e+00 9.7467000000000006e+00 1.8169999999999999e+00 0 0 0
3104 444 4 -7.4069999999999997e-02 1.6733100000000001e+00 1.1563950000000000e+01 3.5739600000000000e+00 0 0 0
3105 444 4 0.0000000000000000e+00 3.4729999999999999e+00 1.1563549999999999e+01 1.8169999999999999e+00 0 0 0
3106 444 4 0.0000000000000000e+00 1.6560500000000000e+00 1.3380500000000000e+01 1.8169999999999999e+00 0 0 0
3109 444 4 0.0000000000000000e+00 5.2898399999999999e+00 1.1563549999999999e+01 0.0000000000000000e+00 0 0 0
3110 444 4 -7.4069999999999997e-02 5.2720000000000002e+00 1.1564060000000000e+01 3.5739000000000001e+00 0 0 0
3112 444 4 0.0000000000000000e+00 5.2898399999999999e+00 1.3380500000000000e+01 1.8169999999999999e+00 0 0 0
3115 444 4 0.0000000000000000e+00 1.6560500000000000e+00 1.1563549999999999e+01 0.0000000000000000e+00 0 0 0
3121 444 4 0.0000000000000000e+00 1.6560500000000000e+00 1.5197450000000000e+01 0.0000000000000000e+00 0 0 0
3122 444 4 -7.4069999999999997e-02 1.6849099999999999e+00 1.5184180000000000e+01 3.5755200000000000e+00 0 0 0
3123 444 4 0.0000000000000000e+00 3.4729999999999999e+00 1.5197450000000000e+01 1.8169999999999999e+00 0 0 0
3129 444 4 -7.4069999999999997e-02 3.4728200000000000e+00 1.3363890000000000e+01 3.5737199999999998e+00 0 0 0
3130 444 4 0.0000000000000000e+00 3.4729999999999999e+00 1.3380500000000000e+01 0.0000000000000000e+00 0 0 0
3131 444 4 0.0000000000000000e+00 5.2898399999999999e+00 1.5197450000000000e+01 0.0000000000000000e+00 0 0 0
3156 444 4 -7.4069999999999997e-02 5.2614700000000001e+00 1.5183800000000000e+01 3.5755200000000000e+00 0 0 0
1976 444 1 4.1499999999999998e-01 2.3347612257727404e+00 1.0477714714832379e+01 5.9209977765306778e+00 -1 -3 0
1975 444 2 -8.2999999999999996e-01 2.5150144300265138e+00 1.0167773724124265e+01 6.8085098482663886e+00 -1 -3 0
2720 444 1 4.1499999999999998e-01 2.4678990786907637e+00 1.3325349414381646e+01 7.4134331287810582e+00 2 -1 0
2721 444 1 4.1499999999999998e-01 1.9328853868664537e+00 1.4729723170951194e+01 7.2307037994352612e+00 2 -1 0
318 444 1 4.1499999999999998e-01 1.1862108190597795e+00 8.7513152688385567e+00 7.3192425574735420e+00 1 -7 0
2719 444 2 -8.2999999999999996e-01 1.7823525256131358e+00 1.3919817568693889e+01 7.7181714247747077e+00 2 -1 0
998 444 1 4.1499999999999998e-01 4.1352575397778262e+00 1.6158039275524931e+01 6.7771696894093862e+00 1 -1 0
2244 444 1 4.1499999999999998e-01 3.8996904700286392e+00 1.2742830568414982e+01 6.0889547696809858e+00 3 -2 0
2242 444 2 -8.2999999999999996e-01 3.9855050054539163e+00 1.2538337957564368e+01 7.0201107379454619e+00 3 -2 0
1233 444 1 4.1499999999999998e-01 4.4208717042725274e+00 9.6156986890873544e+00 6.3514662992331585e+00 3 -1 0
2243 444 1 4.1499999999999998e-01 4.8436597784537847e+00 1.2121171486582934e+01 7.0961078518862815e+00 3 -2 0
1977 444 1 4.1499999999999998e-01 2.9262113631213640e+00 1.0914151440587457e+01 7.2444802195712219e+00 -1 -3 0
1231 444 2 -8.2999999999999996e-01 5.3020289599388724e+00 9.4268824904949327e+00 6.6741777239109350e+00 3 -1 0
2500 444 2 -8.2999999999999996e-01 2.1623598740548857e+00 1.6313024101110614e+01 6.9923891060504735e+00 3 -1 0
2918 444 1 4.1499999999999998e-01 4.4008773151853147e+00 8.4495753775459761e+00 7.9913375602377741e+00 -2 -4 0
207 444 1 4.1499999999999998e-01 7.0023013027012970e-01 1.2756914991786260e+01 8.5660093824738368e+00 -6 -1 0
1880 444 1 4.1499999999999998e-01 3.3437796264936809e-01 1.5055545860119773e+01 9.2225505688994946e+00 -3 7 0
2919 444 1 4.1499999999999998e-01 3.2449767541387509e+00 8.9521924395253336e+00 8.8298871876181551e+00 -2 -4 0
915 444 1 4.1499999999999998e-01 1.1032583482858627e-02 1.2542440875945516e+01 1.0481578277360414e+01 -3 4 0
1210 444 2 -8.2999999999999996e-01 9.3741045298000980e-01 1.5552165228662631e+01 1.4931017382773520e+01 -5 -3 0
1595 444 1 4.1499999999999998e-01 1.0196269567443563e+00 9.5044593349130544e+00 1.3649036275878631e+01 -2 3 0
1068 444 1 4.1499999999999998e-01 1.0074144915488739e+00 1.1489757922456610e+01 1.2444762811913172e+01 -4 -5 0
2236 444 2 -8.2999999999999996e-01 1.9207022182566260e+00 1.0367436479634407e+01 1.0066003821446378e+01 -3 0 0
2237 444 1 4.1499999999999998e-01 1.3916994481639662e+00 9.6643999330341472e+00 1.0443002069286141e+01 -3 0 0
2521 444 2 -8.2999999999999996e-01 3.5366132316047878e+00 1.3326221939999177e+01 1.3098236965530235e+01 5 -1 0
1308 444 1 4.1499999999999998e-01 4.4046369819885784e+00 1.0959016548705954e+01 1.5414918629573354e+01 4 -1 0
2238 444 1 4.1499999999999998e-01 1.2811078314524134e+00 1.0990832231976414e+01 9.7217238648199338e+00 -3 0 0
580 444 2 -8.2999999999999996e-01 4.2911618849375834e+00 1.1062818262889076e+01 1.0846535743888873e+01 -2 -3 0
1067 444 1 4.1499999999999998e-01 1.2971180676047471e+00 1.1712248755346501e+01 1.3913934375488513e+01 -4 -5 0
2523 444 1 4.1499999999999998e-01 2.8066198591413754e+00 1.2707913360942731e+01 1.3066048688584255e+01 5 -1 0
2522 444 1 4.1499999999999998e-01 4.2481479488231377e+00 1.2836230470104292e+01 1.3510375966081343e+01 5 -1 0
1066 444 2 -8.2999999999999996e-01 1.7118112385441364e+00 1.1451037781936238e+01 1.3091723458651082e+01 -4 -5 0
2276 444 1 4.1499999999999998e-01 4.7669057959230994e+00 9.6788509632514224e+00 1.3560182972249647e+01 4 -2 0
582 444 1 4.1499999999999998e-01 3.4216643579651960e+00 1.0703549288621446e+01 1.0670093790508689e+01 -2 -3 0
708 444 1 4.1499999999999998e-01 4.6056835915470122e+00 1.4370430099993429e+01 1.1752680288968786e+01 0 -3 0
2275 444 2 -8.2999999999999996e-01 4.8920780578866374e+00 9.1904745087896487e+00 1.2746517012711060e+01 4 -2 0
1212 444 1 4.1499999999999998e-01 1.7529962654363993e+00 1.5831148015289752e+01 1.4514818616545295e+01 -5 -3 0
1032 444 1 4.1499999999999998e-01 2.1853095356322862e+00 8.8340548330031066e+00 1.5329253161067754e+01 0 3 0
2611 444 2 -8.2999999999999996e-01 3.1528369705131762e+00 1.6038778987607380e+01 1.3584546312685314e+01 2 -4 0
205 444 2 -8.2999999999999996e-01 2.8084106998600189e-01 1.1973701511037403e+01 8.9222697663221648e+00 -6 -1 0
514 444 2 -8.2999999999999996e-01 8.8675585428113168e-01 1.2907677749178578e+01 1.5526044168302830e+01 -1 3 0
2277 444 1 4.1499999999999998e-01 4.3346991739317202e+00 9.6379517259010719e+00 1.2109865759728882e+01 4 -2 0
516 444 1 4.1499999999999998e-01 9.3024345482434778e-01 1.3831190848238027e+01 1.5278124091169669e+01 -1 3 0
1594 444 2 -8.2999999999999996e-01 6.3864019126169425e-01 8.9248812163373916e+00 1.4308710820633603e+01 -2 3 0
1030 444 2 -8.2999999999999996e-01 2.9582733861003256e+00 8.7953359530510387e+00 1.5892512085862059e+01 0 3 0
2040 444 1 4.1499999999999998e-01 3.8175833061627129e+00 1.5614992570417010e+01 9.6068693074776856e+00 -4 -1 0
181 444 2 -8.2999999999999996e-01 4.5845400757782127e+00 1.3414857275050162e+01 9.4649375236988789e+00 0 -1 0
1211 444 1 4.1499999999999998e-01 7.8175483112174904e-01 1.6203762088691413e+01 1.5614702555248025e+01 -5 -3 0
581 444 1 4.1499999999999998e-01 4.2721452958777490e+00 1.1938189958973036e+01 1.0459761045626713e+01 -2 -3 0
1306 444 2 -8.2999999999999996e-01 5.1379003663959955e+00 1.0964423973094995e+01 1.4799672108350681e+01 4 -1 0
2613 444 1 4.1499999999999998e-01 3.6131752014263063e+00 1.5221732721314051e+01 1.3776266016368529e+01 2 -4 0
2479 444 2 -8.2999999999999996e-01 5.6896925154343903e-01 8.1930529371510747e+00 1.1017699133222473e+01 1 3 0
183 444 1 4.1499999999999998e-01 4.3105674266441518e+00 1.3101483198225811e+01 8.6029815992980190e+00 0 -1 0
1879 444 2 -8.2999999999999996e-01 1.7465070248011855e-01 1.5994419540601312e+01 9.1264490909806870e+00 -3 7 0
2917 444 2 -8.2999999999999996e-01 3.8592618441050095e+00 8.2227667149055286e+00 8.7472763629291013e+00 -2 -4 0
1152 444 1 4.1499999999999998e-01 2.4729748843218857e+00 1.2008517601333498e+01 1.6095343771599307e+01 1 -4 0
1150 444 2 -8.2999999999999996e-01 3.0820350273836667e+00 1.1452876621682972e+01 1.6581698426888490e+01 1 -4 0
2115 444 1 4.1499999999999998e-01 4.7598904618762985e+00 1.5117217394098159e+01 1.7605735876263410e+01 -4 -1 0
2113 444 2 -8.2999999999999996e-01 5.3526721643291308e+00 1.5809408814958685e+01 1.7312967953566318e+01 -4 -1 0
1151 444 1 4.1499999999999998e-01 3.3059873478425112e+00 1.1965057042755916e+01 1.7358711011414943e+01 1 -4 0
10 444 2 -8.2999999999999996e-01 1.5888036340237057e+00 1.5303904517856028e+01 1.9849695636760043e+01 1 -2 0
12 444 1 4.1499999999999998e-01 1.5390191207152131e+00 1.4348712269715529e+01 1.9812801791535136e+01 1 -2 0
1408 444 2 -8.2999999999999996e-01 1.4286137850188976e+00 1.2804168489500039e+01 1.9657833056945051e+01 -1 1 0
718 444 2 -8.2999999999999996e-01 3.8985432237625837e+00 1.3435901911494309e+01 1.8353530003568430e+01 6 2 0
719 444 1 4.1499999999999998e-01 3.1799326948394842e+00 1.3283737918219968e+01 1.8967270653051148e+01 6 2 0
1409 444 1 4.1499999999999998e-01 6.2616181293774087e-01 1.2638245339604078e+01 1.9163087625863088e+01 -1 1 0
720 444 1 4.1499999999999998e-01 4.6663209500928309e+00 1.3565340534560125e+01 1.8910302309230183e+01 6 2 0
515 444 1 4.1499999999999998e-01 7.9379155830162168e-02 1.2833544919081714e+01 1.6034845882566689e+01 -1 3 0
1031 444 1 4.1499999999999998e-01 2.8739702622499150e+00 9.5553490665596108e+00 1.6468277566418774e+01 0 3 0
1477 444 2 -8.2999999999999996e-01 6.0336639798234692e-01 8.2664590275753813e+00 1.9082565578981836e+01 5 1 0
448 444 2 -8.2999999999999996e-01 3.2135279966584576e+00 8.3862629186740545e+00 1.8682223125391538e+01 5 1 0
803 444 1 4.1499999999999998e-01 1.5361538377910000e+00 1.6052305295385189e+01 1.7963993705719883e+01 1 -2 0
450 444 1 4.1499999999999998e-01 3.3644090330776497e+00 8.5778359951333769e+00 1.7756606080593407e+01 5 1 0
1479 444 1 4.1499999999999998e-01 1.5568984046600320e+00 8.3357472498315293e+00 1.9035578699780434e+01 5 1 0
1478 444 1 4.1499999999999998e-01 3.1702853405975190e-01 8.2722477498262972e+00 1.8169215099860015e+01 5 1 0
3119 444 4 0.0000000000000000e+00 3.4729999999999999e+00 1.7014299999999999e+01 0.0000000000000000e+00 0 0 0
3120 444 4 -7.4069999999999997e-02 3.4735000000000000e+00 1.7014160000000000e+01 3.5822600000000002e+00 0 0 0
3124 444 4 0.0000000000000000e+00 1.6560500000000000e+00 1.7014299999999999e+01 1.8169999999999999e+00 0 0 0
3132 444 4 0.0000000000000000e+00 5.2898399999999999e+00 1.7014299999999999e+01 1.8169999999999999e+00 0 0 0
3139 444 4 0.0000000000000000e+00 3.4729999999999999e+00 2.0648199999999999e+01 0.0000000000000000e+00 0 0 0
3140 444 4 -7.4069999999999997e-02 3.4729899999999998e+00 2.0665550000000000e+01 3.5738699999999999e+00 0 0 0
3141 444 4 0.0000000000000000e+00 1.6560500000000000e+00 1.8831250000000001e+01 0.0000000000000000e+00 0 0 0
3142 444 4 -7.4069999999999997e-02 1.6855700000000000e+00 1.8844680000000000e+01 3.5755599999999998e+00 0 0 0
3143 444 4 0.0000000000000000e+00 3.4729999999999999e+00 1.8831250000000001e+01 1.8169999999999999e+00 0 0 0
3144 444 4 0.0000000000000000e+00 1.6560500000000000e+00 2.0648199999999999e+01 1.8169999999999999e+00 0 0 0
3147 444 4 0.0000000000000000e+00 5.2898399999999999e+00 1.8831250000000001e+01 0.0000000000000000e+00 0 0 0
3148 444 4 -7.4069999999999997e-02 5.2606200000000003e+00 1.8845250000000000e+01 3.5757500000000002e+00 0 0 0
3150 444 4 0.0000000000000000e+00 5.2898399999999999e+00 2.0648199999999999e+01 1.8169999999999999e+00 0 0 0
3159 444 4 -7.4069999999999997e-02 1.6733100000000001e+00 2.2465450000000001e+01 3.5739600000000000e+00 0 0 0
3160 444 4 0.0000000000000000e+00 3.4729999999999999e+00 2.2465050000000002e+01 1.8169999999999999e+00 0 0 0
3161 444 4 0.0000000000000000e+00 1.6560500000000000e+00 2.4282000000000000e+01 1.8169999999999999e+00 0 0 0
3164 444 4 0.0000000000000000e+00 5.2898399999999999e+00 2.2465050000000002e+01 0.0000000000000000e+00 0 0 0
3165 444 4 -7.4069999999999997e-02 5.2720000000000002e+00 2.2465560000000000e+01 3.5739000000000001e+00 0 0 0
3167 444 4 0.0000000000000000e+00 5.2898399999999999e+00 2.4282000000000000e+01 1.8169999999999999e+00 0 0 0
3170 444 4 0.0000000000000000e+00 1.6560500000000000e+00 2.2465050000000002e+01 0.0000000000000000e+00 0 0 0
3184 444 4 -7.4069999999999997e-02 3.4728200000000000e+00 2.4265390000000000e+01 3.5737199999999998e+00 0 0 0
3185 444 4 0.0000000000000000e+00 3.4729999999999999e+00 2.4282000000000000e+01 0.0000000000000000e+00 0 0 0
1575 444 1 4.1499999999999998e-01 3.5180590893112651e+00 1.9264049958144071e+01 5.8788709949308391e+00 -2 -2 0
1573 444 2 -8.2999999999999996e-01 3.5261838883365408e+00 1.9220250479835123e+01 6.8350338937166635e+00 -2 -2 0
165 444 1 4.1499999999999998e-01 2.3446346663127122e+00 2.1548279672353306e+01 6.5102477112087511e+00 0 -4 0
1574 444 1 4.1499999999999998e-01 2.6162020652003970e+00 1.9045380166370240e+01 7.0750034125885177e+00 -2 -2 0
163 444 2 -8.2999999999999996e-01 3.0201755196206248e+00 2.2202088956920004e+01 6.6902754816931820e+00 0 -4 0
164 444 1 4.1499999999999998e-01 3.5075508022683328e+00 2.2275797545505771e+01 5.8697486285019274e+00 0 -4 0
949 444 2 -8.2999999999999996e-01 9.4234251053795148e-01 1.9240788290507854e+01 7.0056945458542472e+00 4 0 0
950 444 1 4.1499999999999998e-01 1.5269226842369640e-01 1.9040949161303036e+01 6.5029532887640604e+00 4 0 0
951 444 1 4.1499999999999998e-01 7.1628917934111258e-01 2.0024900125606511e+01 7.5059961378927325e+00 4 0 0
1535 444 1 4.1499999999999998e-01 2.0226335427984665e+00 2.3816098441182124e+01 7.0396346616632153e+00 -2 4 0
1534 444 2 -8.2999999999999996e-01 1.4631282117080397e+00 2.4441871336468921e+01 7.4996280683255661e+00 -2 4 0
999 444 1 4.1499999999999998e-01 5.1971037091628087e+00 1.7221085454965209e+01 6.5919363274728511e+00 1 -1 0
2502 444 1 4.1499999999999998e-01 1.8412880412840940e+00 1.6703794927785019e+01 6.1797125534939958e+00 3 -1 0
2501 444 1 4.1499999999999998e-01 1.6930443395952146e+00 1.6778861112340476e+01 7.6844664151038202e+00 3 -1 0
2343 444 1 4.1499999999999998e-01 3.6656603748006850e-01 2.2335203246496690e+01 7.9002821642224941e+00 -2 3 0
997 444 2 -8.2999999999999996e-01 5.0127885482244432e+00 1.6409644479432135e+01 7.0650365322041013e+00 1 -1 0
1642 444 2 -8.2999999999999996e-01 3.1707878647865426e+00 2.1836956929974285e+01 9.5140037209520472e+00 -3 -1 0
1644 444 1 4.1499999999999998e-01 2.5707521238230102e+00 2.1414164902943849e+01 1.0128362113466398e+01 -3 -1 0
1643 444 1 4.1499999999999998e-01 2.7201728571973023e+00 2.1794239463289362e+01 8.6705856095170883e+00 -3 -1 0
1258 444 2 -8.2999999999999996e-01 1.4015682543477657e+00 1.9915414208141904e+01 1.1071327157809474e+01 3 3 0
1329 444 1 4.1499999999999998e-01 2.1664692898378599e-01 2.1385874737378984e+01 1.1257278249523154e+01 4 -2 0
2342 444 1 4.1499999999999998e-01 3.6650580103513591e-01 2.1652255863911140e+01 9.2513847367921844e+00 -2 3 0
665 444 1 4.1499999999999998e-01 4.6442126328471378e+00 2.2853626582429293e+01 9.6248525845157840e+00 -1 2 0
2612 444 1 4.1499999999999998e-01 3.8494928596386111e+00 1.6683606304695818e+01 1.3461663052744480e+01 2 -4 0
1482 444 1 4.1499999999999998e-01 2.6107331795391389e+00 2.0447875923763341e+01 1.4720103541072257e+01 3 6 0
1260 444 1 4.1499999999999998e-01 2.0826091038379526e+00 1.9243861744709559e+01 1.1109175773478109e+01 3 3 0
833 444 1 4.1499999999999998e-01 4.8060999519544509e+00 1.7177448655642809e+01 1.5951637037569302e+01 1 2 0
1169 444 1 4.1499999999999998e-01 3.6657223945480752e+00 2.2291536479221520e+01 1.2670028069276258e+01 -3 1 0
1782 444 1 4.1499999999999998e-01 5.2625636546912498e+00 1.8561118336066055e+01 1.4225828544260080e+01 -4 -2 0
110 444 1 4.1499999999999998e-01 1.7806480630210952e+00 2.4427169519257337e+01 1.2342865873096443e+01 3 0 0
832 444 2 -8.2999999999999996e-01 4.5001075935425057e+00 1.8050158443492705e+01 1.5704697836406554e+01 1 2 0
805 444 2 -8.2999999999999996e-01 4.0016873739559085e+00 2.1582272909571394e+01 1.5538365847620673e+01 3 1 0
807 444 1 4.1499999999999998e-01 3.8609504999495607e+00 2.2528304077594534e+01 1.5500283178663524e+01 3 1 0
1733 444 1 4.1499999999999998e-01 4.4447204361817123e+00 1.8113705022911368e+01 1.0302487328360900e+01 2 -4 0
1170 444 1 4.1499999999999998e-01 2.7390839670743365e+00 2.1136533825337001e+01 1.2355059215024832e+01 -3 1 0
1734 444 1 4.1499999999999998e-01 4.6749192129842978e+00 1.8796805374799472e+01 1.1633756725849743e+01 2 -4 0
1732 444 2 -8.2999999999999996e-01 4.5126467758275775e+00 1.8978101591098962e+01 1.0707996619684248e+01 2 -4 0
1168 444 2 -8.2999999999999996e-01 2.7669354006475992e+00 2.1986591578374600e+01 1.2794215199482457e+01 -3 1 0
1881 444 1 4.1499999999999998e-01 5.5314560584292882e-01 1.6384150289753247e+01 9.9145380140389268e+00 -3 7 0
1481 444 1 4.1499999999999998e-01 3.0429917872457946e+00 1.9087795953824369e+01 1.4214899922174698e+01 3 6 0
1480 444 2 -8.2999999999999996e-01 2.2863110264007229e+00 1.9561672602530859e+01 1.4560019327877606e+01 3 6 0
1755 444 1 4.1499999999999998e-01 3.7146776569128770e-01 1.9325277933793210e+01 1.3541976908971039e+01 -8 0 0
2042 444 1 4.1499999999999998e-01 4.6445335250998880e+00 1.6552921673022002e+01 8.7534423496172575e+00 -4 -1 0
1259 444 1 4.1499999999999998e-01 6.9482443431862351e-01 1.9512331877617619e+01 1.0567075488782557e+01 3 3 0
2341 444 2 -8.2999999999999996e-01 6.2045997305202905e-01 2.1522505969875269e+01 8.3376534946125034e+00 -2 3 0
2038 444 2 -8.2999999999999996e-01 4.0512262912840367e+00 1.6537570011309079e+01 9.5044302347057030e+00 -4 -1 0
1641 444 1 4.1499999999999998e-01 1.0470198851649450e+00 2.2764454629700413e+01 1.3316732707704688e+01 1 -2 0
1053 444 1 4.1499999999999998e-01 2.5931258014744780e+00 1.6674456358725056e+01 1.0337134435115194e+01 3 0 0
1052 444 1 4.1499999999999998e-01 2.1248048470671037e+00 1.6452637604121495e+01 1.1759585829481269e+01 3 0 0
1051 444 2 -8.2999999999999996e-01 1.9184383491154360e+00 1.6940033529756171e+01 1.0962033095143420e+01 3 0 0
3029 444 3 1.0000000000000000e+00 5.1124242665546795e+00 2.0305099678298244e+01 8.5182058914444756e+00 1 -2 0
1639 444 2 -8.2999999999999996e-01 3.4094397954834588e-01 2.3409693730285287e+01 1.3279919800254604e+01 1 -2 0
1754 444 1 4.1499999999999998e-01 3.2602007013025514e-02 2.0157131613602370e+01 1.4760617481213814e+01 -8 0 0
2331 444 1 4.1499999999999998e-01 5.4461858252196844e+00 2.3176117294663698e+01 1.1956350312695568e+01 3 -3 0
834 444 1 4.1499999999999998e-01 3.8479531515042731e+00 1.8272708598329839e+01 1.6369076499173751e+01 1 2 0
1483 444 2 -8.2999999999999996e-01 5.1078084012935649e+00 1.7648966210603270e+01 1.9739934745773734e+01 3 0 0
2922 444 1 4.1499999999999998e-01 1.0301864514259016e+00 2.4289738720386818e+01 1.6607675173999194e+01 -5 5 0
1484 444 1 4.1499999999999998e-01 4.9356717082567227e+00 1.6872739790114643e+01 1.9206949231889652e+01 3 0 0
806 444 1 4.1499999999999998e-01 4.1804705600293950e+00 2.1403211033294074e+01 1.6461515687820761e+01 3 1 0
802 444 2 -8.2999999999999996e-01 1.3186563572761190e+00 1.6667825544604678e+01 1.7263949039777728e+01 1 -2 0
2419 444 2 -8.2999999999999996e-01 4.2025444360100481e+00 2.1638435984705456e+01 1.8448736984420762e+01 3 -4 0