LAMMPS data file via write_data, version 11 Aug 2017, timestep = 1000000

3561 atoms
11 atom types
2024 bonds
5 bond types
1018 angles
5 angle types
12 dihedrals
4 dihedral types
9 impropers
1 improper types

0.0000000000000000e+00 3.2704500000000003e+01 xlo xhi
0.0000000000000000e+00 3.2704500000000003e+01 ylo yhi
0.0000000000000000e+00 8.0000000000000000e+01 zlo zhi

Masses

1 1.0079
2 15.9994
3 39.0983
4 63.546
5 12.011
6 1.0079
7 12.011
8 15.9994
9 15.9994
10 15.9994
11 1.0079

Bond Coeffs # harmonic

1 450 0.9572
2 570 1.229
3 450 1.364
4 570 1.229
5 553 0.945

Angle Coeffs # harmonic

1 100 123.32
2 85 124
3 55 104.52
4 35 113
5 100 123.32

Dihedral Coeffs # charmm

1 0.922 1 180 0
2 3.741 2 0 0
3 0.922 1 0 0
4 3.741 2 180 0

Improper Coeffs # umbrella

1 21 0

Atoms # full

3049 444 4 -7.4069999999999997e-02 1.6719999999999999e+00 6.7476999999999998e-01 3.5870799999999998e+00 0 0 0
3051 444 4 0.0000000000000000e+00 1.6560500000000000e+00 2.4790000000000001e+00 1.8169999999999999e+00 0 0 0
3060 444 4 0.0000000000000000e+00 1.6560500000000000e+00 6.6205000000000003e-01 0.0000000000000000e+00 0 0 0
2317 444 2 -8.2999999999999996e-01 8.8614659034767437e-02 9.3675288158056358e-01 6.6609332156208243e+00 5 -2 0
2318 444 1 4.1499999999999998e-01 4.3086864564121491e-01 4.7915035014102081e-01 5.8930176020453882e+00 5 -2 0
2446 444 2 -8.2999999999999996e-01 1.3322594778256143e+00 2.7123858206384006e+00 9.4394989116243107e+00 0 1 0
2448 444 1 4.1499999999999998e-01 4.1672048312662330e-01 2.4417642916726487e+00 9.5086670151929784e+00 0 1 0
2447 444 1 4.1499999999999998e-01 1.3674784055287825e+00 3.2377767783533744e+00 8.6401517887906607e+00 0 1 0
1906 444 2 -8.2999999999999996e-01 2.4031052216388532e-01 5.1627418379038170e-01 1.3223580621457813e+01 -2 -3 0
1908 444 1 4.1499999999999998e-01 3.5570535824353439e-01 1.0398472463988671e+00 1.2430619582269568e+01 -2 -3 0
1907 444 1 4.1499999999999998e-01 1.2146689154078928e-01 1.1605925294266506e+00 1.3921407365188680e+01 -2 -3 0
398 444 1 4.1499999999999998e-01 1.9804305233795552e-01 3.5476837390418643e+00 1.8851057619154123e+01 -1 -3 0
399 444 1 4.1499999999999998e-01 1.5294488413522380e+00 2.9786162425051517e+00 1.8408998757669966e+01 -1 -3 0
397 444 2 -8.2999999999999996e-01 1.1425864642326387e+00 3.6753016696224541e+00 1.8939280568236164e+01 -1 -3 0
2652 444 1 4.1499999999999998e-01 1.9127267389102001e+00 8.3513826354370624e-01 1.7454388243116565e+01 -7 5 0
3066 444 4 0.0000000000000000e+00 1.6560500000000000e+00 4.2959500000000004e+00 0.0000000000000000e+00 0 0 0
3067 444 4 -7.4069999999999997e-02 1.6597299999999999e+00 4.2923299999999998e+00 3.5614499999999998e+00 0 0 0
3069 444 4 0.0000000000000000e+00 1.6560500000000000e+00 6.1128000000000000e+00 1.8169999999999999e+00 0 0 0
3086 444 4 0.0000000000000000e+00 1.6560500000000000e+00 7.9297500000000003e+00 0.0000000000000000e+00 0 0 0
3087 444 4 -7.4069999999999997e-02 1.6916500000000001e+00 7.9585800000000004e+00 3.5748199999999999e+00 0 0 0
1879 444 2 -8.2999999999999996e-01 1.3077329238396300e+00 5.0036096231441540e+00 7.0168622879275064e+00 0 3 0
1880 444 1 4.1499999999999998e-01 5.1304970557835972e-01 4.4761350932404325e+00 6.9363531166213894e+00 0 3 0
56 444 1 4.1499999999999998e-01 1.2782476891776176e+00 6.8565459234476238e+00 7.1584736406934022e+00 1 2 0
55 444 2 -8.2999999999999996e-01 1.6958683514760997e+00 7.7147949363043704e+00 7.0861236134319894e+00 1 2 0
1881 444 1 4.1499999999999998e-01 1.7877025172448981e+00 4.8399072651301900e+00 6.2050355103653336e+00 0 3 0
57 444 1 4.1499999999999998e-01 1.9203432106271543e+00 7.7950729435740840e+00 6.1590859733988372e+00 1 2 0
1370 444 1 4.1499999999999998e-01 1.8168915667303918e+00 8.1193197316873551e+00 1.3787332635135671e+01 1 2 0
768 444 1 4.1499999999999998e-01 1.3689603550944342e-02 6.8929352276386195e+00 1.2841534675826036e+01 -1 -4 0
2179 444 2 -8.2999999999999996e-01 6.0101962711852308e-01 4.6735588518838167e+00 1.3651477351266614e+01 4 1 0
2739 444 1 4.1499999999999998e-01 7.4294469635558458e-01 5.6955372548249708e+00 9.2317741242694336e+00 11 6 0
2180 444 1 4.1499999999999998e-01 3.1887116809197991e-01 4.9269961465190635e+00 1.4530336639339790e+01 4 1 0
683 444 1 4.1499999999999998e-01 1.5577459846973494e+00 6.1806115481106998e+00 1.5970899147259596e+01 -4 -1 0
1835 444 1 4.1499999999999998e-01 1.9018123466014603e+00 4.1474761282926362e+00 1.0592315435925652e+01 -1 -3 0
2391 444 1 4.1499999999999998e-01 5.4380282111848599e-01 5.5516174995858085e+00 1.8714017179788769e+01 0 1 0
3089 444 4 0.0000000000000000e+00 1.6560500000000000e+00 9.7467000000000006e+00 1.8169999999999999e+00 0 0 0
3106 444 4 -7.4069999999999997e-02 1.6719999999999999e+00 1.1576269999999999e+01 3.5870799999999998e+00 0 0 0
3117 444 4 0.0000000000000000e+00 1.6560500000000000e+00 1.1563549999999999e+01 0.0000000000000000e+00 0 0 0
2412 444 1 4.1499999999999998e-01 1.2936596692279374e+00 1.0847577084415990e+01 7.5325712893077093e+00 5 -2 0
63 444 1 4.1499999999999998e-01 1.7693420674695493e+00 1.1655257169188511e+01 1.4890326313603445e+01 2 3 0
1369 444 2 -8.2999999999999996e-01 1.4638509652856502e+00 8.8102378061405808e+00 1.4347891660079238e+01 1 2 0
2410 444 2 -8.2999999999999996e-01 4.8204895081943461e-01 1.0765190198329787e+01 8.0333043179434860e+00 5 -2 0
1371 444 1 4.1499999999999998e-01 1.5469191972428111e+00 9.6084475704981571e+00 1.3826170763177398e+01 1 2 0
1507 444 2 -8.2999999999999996e-01 1.8387240258548878e+00 1.1319231725951196e+01 1.2790518004509304e+01 -4 1 0
1508 444 1 4.1499999999999998e-01 1.0265428428621786e+00 1.1165573681222766e+01 1.2307835104247177e+01 -4 1 0
61 444 2 -8.2999999999999996e-01 1.8791400083767762e+00 1.1470012236680134e+01 1.5822989834747139e+01 2 3 0
2436 444 1 4.1499999999999998e-01 1.5135281284255886e+00 9.5385686221312351e+00 1.9903426908935927e+01 -3 -1 0
2408 444 1 4.1499999999999998e-01 1.9452586156968925e+00 1.2179390781314543e+01 1.9200695682633697e+01 1 0 0
3108 444 4 0.0000000000000000e+00 1.6560500000000000e+00 1.3380500000000000e+01 1.8169999999999999e+00 0 0 0
3123 444 4 0.0000000000000000e+00 1.6560500000000000e+00 1.5197450000000000e+01 0.0000000000000000e+00 0 0 0
3124 444 4 -7.4069999999999997e-02 1.6597299999999999e+00 1.5193830000000000e+01 3.5614499999999998e+00 0 0 0
961 444 2 -8.2999999999999996e-01 9.7878913233903697e-01 1.4508918293895359e+01 7.5805886350281249e+00 -1 0 0
671 444 1 4.1499999999999998e-01 1.5501352226579845e+00 1.6188488603679730e+01 7.5503876869385920e+00 2 -1 0
962 444 1 4.1499999999999998e-01 9.0981628321119934e-01 1.3912146074162399e+01 6.8353789152090920e+00 -1 0 0
963 444 1 4.1499999999999998e-01 3.6894652667646144e-01 1.4155571110110186e+01 8.2282534126541673e+00 -1 0 0
2784 444 1 4.1499999999999998e-01 1.5592378056403835e+00 1.5219685996560495e+01 1.4480354085717833e+01 -2 2 0
2783 444 1 4.1499999999999998e-01 1.1361352195081169e+00 1.4383879716101960e+01 1.3291107577265787e+01 -2 2 0
2782 444 2 -8.2999999999999996e-01 1.9089115445084270e+00 1.4740557323022040e+01 1.3729091250094278e+01 -2 2 0
619 444 2 -8.2999999999999996e-01 1.2853261322826931e-01 1.2436198406459717e+01 1.7845447275879419e+01 -2 1 0
621 444 1 4.1499999999999998e-01 5.2575816947886267e-01 1.2334679759546002e+01 1.6980497756748910e+01 -2 1 0
2058 444 1 4.1499999999999998e-01 1.9397595099028810e+00 1.6179160134217412e+01 1.8316570137685609e+01 -5 2 0
3126 444 4 0.0000000000000000e+00 1.6560500000000000e+00 1.7014299999999999e+01 1.8169999999999999e+00 0 0 0
3143 444 4 0.0000000000000000e+00 1.6560500000000000e+00 1.8831250000000001e+01 0.0000000000000000e+00 0 0 0
3144 444 4 -7.4069999999999997e-02 1.6916500000000001e+00 1.8860080000000000e+01 3.5748199999999999e+00 0 0 0
670 444 2 -8.2999999999999996e-01 1.8393507444265305e+00 1.7062498013178459e+01 7.2882926444363365e+00 2 -1 0
672 444 1 4.1499999999999998e-01 1.5462469105825665e+00 1.7150336741680363e+01 6.3813161477574925e+00 2 -1 0
1950 444 1 4.1499999999999998e-01 2.4442641677844373e-01 1.8647144844725879e+01 7.2603535731381559e+00 -3 5 0
2000 444 1 4.1499999999999998e-01 1.5665602730976160e+00 1.7549835559910704e+01 9.3946128319396625e+00 0 -4 0
127 444 2 -8.2999999999999996e-01 6.0682090998897098e-01 1.7833408964091259e+01 1.2795907896805463e+01 -3 -3 0
2496 444 1 4.1499999999999998e-01 1.7114800177638123e+00 1.9151391687828415e+01 1.3408353759476494e+01 -1 1 0
1999 444 2 -8.2999999999999996e-01 1.1977445086905334e+00 1.7373856405781776e+01 1.0260198256097217e+01 0 -4 0
2032 444 2 -8.2999999999999996e-01 2.9722617562078030e-02 2.0096535584346899e+01 9.6242316666273133e+00 -5 2 0
1762 444 2 -8.2999999999999996e-01 6.4701224802942592e-01 1.6760029819791679e+01 1.5293187541781052e+01 -2 -6 0
2001 444 1 4.1499999999999998e-01 1.8275278543436420e+00 1.6783569047861754e+01 1.0673919972691422e+01 0 -4 0
129 444 1 4.1499999999999998e-01 8.8442205562864851e-01 1.7730599337005653e+01 1.1885633394256416e+01 -3 -3 0
1763 444 1 4.1499999999999998e-01 6.4802815522691426e-01 1.7097882029872576e+01 1.4397594601319458e+01 -2 -6 0
2033 444 1 4.1499999999999998e-01 4.9030556628214789e-01 1.9279935357359403e+01 9.8172588725246825e+00 -5 2 0
2057 444 1 4.1499999999999998e-01 7.2633288168541255e-01 1.6496966065285644e+01 1.7468931989785457e+01 -5 2 0
602 444 1 4.1499999999999998e-01 1.7628360328859602e-01 1.7937997945550460e+01 1.9006980723187628e+01 -7 3 0
2056 444 2 -8.2999999999999996e-01 1.1107594895052444e+00 1.6657480681090565e+01 1.8330722624716937e+01 -5 2 0
3146 444 4 0.0000000000000000e+00 1.6560500000000000e+00 2.0648199999999999e+01 1.8169999999999999e+00 0 0 0
3163 444 4 -7.4069999999999997e-02 1.6719999999999999e+00 2.2477770000000000e+01 3.5870799999999998e+00 0 0 0
3165 444 4 0.0000000000000000e+00 1.6560500000000000e+00 2.4282000000000000e+01 1.8169999999999999e+00 0 0 0
3174 444 4 0.0000000000000000e+00 1.6560500000000000e+00 2.2465050000000002e+01 0.0000000000000000e+00 0 0 0
1093 444 2 -8.2999999999999996e-01 1.8330653350119910e+00 2.0823280112552808e+01 6.7746366221818590e+00 -3 -2 0
1094 444 1 4.1499999999999998e-01 1.1940992823510816e+00 2.1321570960226353e+01 7.2842065772312878e+00 -3 -2 0
1095 444 1 4.1499999999999998e-01 1.6844792799777448e+00 2.1097261173682160e+01 5.8696013534084299e+00 -3 -2 0
2405 444 1 4.1499999999999998e-01 1.9759932273788079e+00 2.4488306097910762e+01 6.2168779444772033e+00 1 -3 0
2054 444 1 4.1499999999999998e-01 7.3254075793410278e-01 2.3363587686869646e+01 1.0381470506083577e+01 5 -1 0
1090 444 2 -8.2999999999999996e-01 5.7012541895288715e-01 2.1204228531817972e+01 1.5657926550506716e+01 -4 -2 0
2765 444 1 4.1499999999999998e-01 5.6190600098310184e-01 2.4061816485315699e+01 1.2618559770903653e+01 -4 4 0
2764 444 2 -8.2999999999999996e-01 8.2384833093861365e-01 2.4408451859490665e+01 1.3471474626804131e+01 -4 4 0
2766 444 1 4.1499999999999998e-01 8.1022068059054164e-01 2.3648818361153051e+01 1.4053714387016733e+01 -4 4 0
1092 444 1 4.1499999999999998e-01 1.1424456255212139e+00 2.0778053286179521e+01 1.5019916540046834e+01 -4 -2 0
2053 444 2 -8.2999999999999996e-01 1.3657590158844149e-01 2.3581840821705505e+01 1.1098006905627290e+01 5 -1 0
1091 444 1 4.1499999999999998e-01 1.1693422404110099e+00 2.1610489269750811e+01 1.6284124641319650e+01 -4 -2 0
944 444 1 4.1499999999999998e-01 1.2549593053669998e+00 2.4360265655429519e+01 1.7759371676823886e+01 4 -1 0
3180 444 4 0.0000000000000000e+00 1.6560500000000000e+00 2.6098949999999999e+01 0.0000000000000000e+00 0 0 0
3181 444 4 -7.4069999999999997e-02 1.6597299999999999e+00 2.6095330000000001e+01 3.5614499999999998e+00 0 0 0
3183 444 4 0.0000000000000000e+00 1.6560500000000000e+00 2.7915800000000001e+01 1.8169999999999999e+00 0 0 0
2335 444 2 -8.2999999999999996e-01 1.5563779510675562e+00 2.6887891582555717e+01 7.3514180767078017e+00 5 -2 0
2337 444 1 4.1499999999999998e-01 1.5886851047627708e+00 2.6853281955139582e+01 6.3953895557875278e+00 5 -2 0
1563 444 1 4.1499999999999998e-01 5.7501091224089329e-01 2.5458196413961154e+01 7.7731030142937012e+00 -1 3 0
554 444 1 4.1499999999999998e-01 1.2775271746736028e-01 2.7953124405058198e+01 8.1415677404027402e+00 -1 0 0
2043 444 1 4.1499999999999998e-01 6.2467058620649751e-01 2.6922275593114659e+01 1.6540234206744191e+01 -3 0 0
943 444 2 -8.2999999999999996e-01 2.0111683436295764e+00 2.4911096203292239e+01 1.7961772879873322e+01 4 -1 0
3200 444 4 0.0000000000000000e+00 1.6560500000000000e+00 2.9732749999999999e+01 0.0000000000000000e+00 0 0 0
3201 444 4 -7.4069999999999997e-02 1.6916500000000001e+00 2.9761579999999999e+01 3.5748199999999999e+00 0 0 0
3203 444 4 0.0000000000000000e+00 1.6560500000000000e+00 3.1549700000000001e+01 1.8169999999999999e+00 0 0 0
1839 444 1 4.1499999999999998e-01 2.6717121485700751e-01 3.0074587356918080e+01 5.9072931545935257e+00 -1 2 0
1837 444 2 -8.2999999999999996e-01 7.1509650271756187e-01 3.0462019577932747e+01 6.6592845531894751e+00 -1 2 0
1838 444 1 4.1499999999999998e-01 1.3622326870091455e+00 2.9805668381027029e+01 6.9174506558190005e+00 -1 2 0
2924 444 1 4.1499999999999998e-01 4.6875488748050020e-01 3.1165859240676625e+01 8.3019938758040919e+00 -2 -8 0
1087 444 2 -8.2999999999999996e-01 5.9256405452398131e-01 3.0411671972777331e+01 1.3286208895516975e+01 0 -4 0
1089 444 1 4.1499999999999998e-01 9.0379609975762887e-01 3.0126562396364474e+01 1.2427093364179278e+01 0 -4 0
1088 444 1 4.1499999999999998e-01 5.9544117278411623e-01 3.1367622495890121e+01 1.3237391474695682e+01 0 -4 0
1146 444 1 4.1499999999999998e-01 1.0403023572090393e+00 2.9478485724024271e+01 1.0326048630082251e+01 1 0 0
2923 444 2 -8.2999999999999996e-01 6.1581108279162089e-01 3.1566227691610869e+01 9.1589136183959852e+00 -2 -8 0
1144 444 2 -8.2999999999999996e-01 1.7930362803388495e+00 2.9572195172386326e+01 1.0909865420605472e+01 1 0 0
1046 444 1 4.1499999999999998e-01 2.3508460603030798e-01 3.2644028273584830e+01 1.7855163500761488e+01 -4 7 0
1047 444 1 4.1499999999999998e-01 3.6097604052513965e-01 3.1294907766951042e+01 1.7179944710889892e+01 -4 7 0
1045 444 2 -8.2999999999999996e-01 8.7329366648858908e-01 3.2057209260553236e+01 1.7449497971026446e+01 -4 7 0
3050 444 4 0.0000000000000000e+00 3.4729999999999999e+00 6.6205000000000003e-01 1.8169999999999999e+00 0 0 0
3074 444 4 -7.4069999999999997e-02 3.4818500000000001e+00 2.4791200000000000e+00 3.5839300000000001e+00 0 0 0
3075 444 4 0.0000000000000000e+00 3.4729999999999999e+00 2.4790000000000001e+00 0.0000000000000000e+00 0 0 0
762 444 1 4.1499999999999998e-01 2.2503001673320915e+00 2.1225023925052033e+00 6.0996525557617307e+00 2 4 0
760 444 2 -8.2999999999999996e-01 2.6683500793657329e+00 2.4215859203437602e+00 6.9071271977547593e+00 2 4 0
761 444 1 4.1499999999999998e-01 2.8055474003415570e+00 3.3593915820803262e+00 6.7732258364042766e+00 2 4 0
1239 444 1 4.1499999999999998e-01 3.8629636689382472e+00 7.9777736489347661e-02 6.0770308486644211e+00 1 2 0
41 444 1 4.1499999999999998e-01 3.3827704544365145e+00 6.6949331938303747e-01 1.2788690760624261e+01 5 3 0
2816 444 1 4.1499999999999998e-01 2.8658115452650090e+00 2.8021870346041915e+00 1.4562572807962207e+01 1 0 0
2316 444 1 4.1499999999999998e-01 3.6695005438815675e+00 2.3795215036861403e+00 1.1568763011194582e+01 -1 -1 0
2314 444 2 -8.2999999999999996e-01 2.8631008393982897e+00 1.8717101882770730e+00 1.1478879097463222e+01 -1 -1 0
2315 444 1 4.1499999999999998e-01 2.2606287050102818e+00 2.4572553234183618e+00 1.1020189571797804e+01 -1 -1 0
2815 444 2 -8.2999999999999996e-01 2.9469777902256893e+00 3.7211697884307315e+00 1.4307397204371682e+01 1 0 0
3020 444 3 1.0000000000000000e+00 2.6352629819359024e+00 5.5622918620749207e-01 9.0361523907941219e+00 -1 0 0
2817 444 1 4.1499999999999998e-01 2.1112888703303714e+00 3.9288844486184082e+00 1.3889413335055504e+01 1 0 0
2651 444 1 4.1499999999999998e-01 3.1842969792914264e+00 1.5314814068282876e+00 1.7890405342122349e+01 -7 5 0
2650 444 2 -8.2999999999999996e-01 2.2974164698228536e+00 1.7034343512151042e+00 1.7574007786617575e+01 -7 5 0
3064 444 4 0.0000000000000000e+00 3.4729999999999999e+00 6.1128000000000000e+00 0.0000000000000000e+00 0 0 0
3065 444 4 -7.4069999999999997e-02 3.4694300000000000e+00 6.1094099999999996e+00 3.5789800000000001e+00 0 0 0
3068 444 4 0.0000000000000000e+00 3.4729999999999999e+00 4.2959500000000004e+00 1.8169999999999999e+00 0 0 0
3088 444 4 0.0000000000000000e+00 3.4729999999999999e+00 7.9297500000000003e+00 1.8169999999999999e+00 0 0 0
684 444 1 4.1499999999999998e-01 2.9616814010983212e+00 5.6451191553243794e+00 1.5786213770471234e+01 -4 -1 0
1834 444 2 -8.2999999999999996e-01 2.5448911538484289e+00 4.8504032535587696e+00 1.0684917662102652e+01 -1 -3 0
27 444 1 4.1499999999999998e-01 3.0376461804621266e+00 6.4979049730247560e+00 1.3406352015800096e+01 1 -4 0
25 444 2 -8.2999999999999996e-01 2.4500418729745008e+00 6.9501324272914351e+00 1.2801005769486045e+01 1 -4 0
2346 444 1 4.1499999999999998e-01 3.8889910787729165e+00 5.4537230517401598e+00 9.5611118812993254e+00 2 5 0
26 444 1 4.1499999999999998e-01 3.0038144796837436e+00 7.1780753441600336e+00 1.2054272492504699e+01 1 -4 0
1836 444 1 4.1499999999999998e-01 2.2196952983841021e+00 5.3786760427924047e+00 1.1413894760544524e+01 -1 -3 0
682 444 2 -8.2999999999999996e-01 2.4054656402479173e+00 6.1116862777236838e+00 1.6410049534598759e+01 -4 -1 0
1350 444 1 4.1499999999999998e-01 3.6553526423233302e+00 7.9565716885000652e+00 1.6140700734708073e+01 -2 3 0
547 444 2 -8.2999999999999996e-01 3.4174130059420520e+00 4.7882548112221563e+00 1.9513876131833495e+01 2 2 0
549 444 1 4.1499999999999998e-01 2.6023701744203116e+00 4.3813856632130657e+00 1.9219946578333587e+01 2 2 0
3084 444 4 0.0000000000000000e+00 3.4729999999999999e+00 9.7467000000000006e+00 0.0000000000000000e+00 0 0 0
3085 444 4 -7.4069999999999997e-02 3.4850400000000001e+00 9.7702600000000004e+00 3.5865999999999998e+00 0 0 0
3107 444 4 0.0000000000000000e+00 3.4729999999999999e+00 1.1563549999999999e+01 1.8169999999999999e+00 0 0 0
2386 444 2 -8.2999999999999996e-01 2.6264397646695108e+00 1.1134365195799610e+01 6.7732051689836918e+00 3 1 0
2387 444 1 4.1499999999999998e-01 3.3796200373110312e+00 1.1675149136929878e+01 6.5354982557235823e+00 3 1 0
2388 444 1 4.1499999999999998e-01 2.2660494198717553e+00 1.0843324499947897e+01 5.9355619659162233e+00 3 1 0
2945 444 1 4.1499999999999998e-01 2.3834994769259992e+00 8.6470404656939390e+00 8.3788415843524806e+00 3 3 0
2946 444 1 4.1499999999999998e-01 2.8908499238551300e+00 1.0029830505685345e+01 8.0290095491046305e+00 3 3 0
2944 444 2 -8.2999999999999996e-01 3.0496979568950575e+00 9.2916639827168463e+00 8.6173201740549157e+00 3 3 0
1509 444 1 4.1499999999999998e-01 2.4502406844631430e+00 1.1649494215549298e+01 1.2132334196758475e+01 -4 1 0
432 444 1 4.1499999999999998e-01 3.4047605037775530e+00 1.0723810238670080e+01 9.9414632302945165e+00 2 1 0
430 444 2 -8.2999999999999996e-01 3.4501570385584639e+00 1.1453699082012216e+01 1.0559066218134939e+01 2 1 0
1215 444 1 4.1499999999999998e-01 3.6378811174965793e+00 8.7306803451067587e+00 1.0456609672371487e+01 2 6 0
62 444 1 4.1499999999999998e-01 2.2185266658585525e+00 1.0575458185329630e+01 1.5851660101699778e+01 2 3 0
431 444 1 4.1499999999999998e-01 3.9092177174359675e+00 1.2144349935206666e+01 1.0081052916025499e+01 2 1 0
2409 444 1 4.1499999999999998e-01 3.3455473793163009e+00 1.1606021619503855e+01 1.9249018213488196e+01 1 0 0
2407 444 2 -8.2999999999999996e-01 2.4891072908947312e+00 1.1548738835531459e+01 1.9672647756136353e+01 1 0 0
3125 444 4 0.0000000000000000e+00 3.4729999999999999e+00 1.5197450000000000e+01 1.8169999999999999e+00 0 0 0
3131 444 4 -7.4069999999999997e-02 3.4818500000000001e+00 1.3380620000000000e+01 3.5839300000000001e+00 0 0 0
3132 444 4 0.0000000000000000e+00 3.4729999999999999e+00 1.3380500000000000e+01 0.0000000000000000e+00 0 0 0
1375 444 2 -8.2999999999999996e-01 2.8927501404930180e+00 1.5802379909290513e+01 1.1351539087151476e+01 1 1 0
2067 444 1 4.1499999999999998e-01 2.1611715629735717e+00 1.3951247523901490e+01 8.6981780304526914e+00 -4 7 0
1377 444 1 4.1499999999999998e-01 2.7216445733880854e+00 1.5482874872607724e+01 1.2237468699875135e+01 1 1 0
1376 444 1 4.1499999999999998e-01 2.7218739524674498e+00 1.5048290384302394e+01 1.0787285445860293e+01 1 1 0
2066 444 1 4.1499999999999998e-01 3.6047112861059589e+00 1.4239052174474693e+01 8.3442617339594687e+00 -4 7 0
2065 444 2 -8.2999999999999996e-01 3.0472375516517638e+00 1.3933441797206342e+01 9.0598434662101983e+00 -4 7 0
1902 444 1 4.1499999999999998e-01 3.9046446095864695e+00 1.4924815329395949e+01 1.4325439180017510e+01 4 2 0
1645 444 2 -8.2999999999999996e-01 3.5884328292739420e+00 1.5371344313673237e+01 1.8415881747747481e+01 7 3 0
1647 444 1 4.1499999999999998e-01 3.5998657810609260e+00 1.4668061261574632e+01 1.7766655971899088e+01 7 3 0
190 444 2 -8.2999999999999996e-01 3.8701573725947775e+00 1.3270147643005334e+01 1.6899623508808901e+01 3 0 0
192 444 1 4.1499999999999998e-01 3.1400917680965166e+00 1.2728206274275060e+01 1.6600398477726696e+01 3 0 0
3121 444 4 0.0000000000000000e+00 3.4729999999999999e+00 1.7014299999999999e+01 0.0000000000000000e+00 0 0 0
3122 444 4 -7.4069999999999997e-02 3.4694300000000000e+00 1.7010909999999999e+01 3.5789800000000001e+00 0 0 0
3145 444 4 0.0000000000000000e+00 3.4729999999999999e+00 1.8831250000000001e+01 1.8169999999999999e+00 0 0 0
2540 444 1 4.1499999999999998e-01 3.7713422981581211e+00 1.7264735028780333e+01 7.1165895735870164e+00 -1 -3 0
2003 444 1 4.1499999999999998e-01 3.6473851216454127e+00 1.8788391939819835e+01 8.6046561060796076e+00 -2 -1 0
2002 444 2 -8.2999999999999996e-01 3.4315020261955982e+00 1.9685310355808728e+01 8.8599279271352813e+00 -2 -1 0
213 444 1 4.1499999999999998e-01 2.6933526592910888e+00 1.9348383647728152e+01 1.5458501778962370e+01 -6 -2 0
2004 444 1 4.1499999999999998e-01 2.9490410096720390e+00 2.0038094885110016e+01 8.1122606720211046e+00 -2 -1 0
2494 444 2 -8.2999999999999996e-01 2.2228331228584475e+00 1.9881538624823538e+01 1.3757118306483640e+01 -1 1 0
212 444 1 4.1499999999999998e-01 2.3322441480794578e+00 1.8392284775197638e+01 1.6575359462445174e+01 -6 -2 0
211 444 2 -8.2999999999999996e-01 2.9830850124212751e+00 1.9045726746295294e+01 1.6319133308921206e+01 -6 -2 0
624 444 1 4.1499999999999998e-01 3.4215292022846531e+00 2.0213623457074227e+01 1.8824689189210090e+01 5 0 0
3141 444 4 0.0000000000000000e+00 3.4729999999999999e+00 2.0648199999999999e+01 0.0000000000000000e+00 0 0 0
3142 444 4 -7.4069999999999997e-02 3.4850400000000001e+00 2.0671759999999999e+01 3.5865999999999998e+00 0 0 0
3164 444 4 0.0000000000000000e+00 3.4729999999999999e+00 2.2465050000000002e+01 1.8169999999999999e+00 0 0 0
3188 444 4 -7.4069999999999997e-02 3.4818500000000001e+00 2.4282119999999999e+01 3.5839300000000001e+00 0 0 0
3189 444 4 0.0000000000000000e+00 3.4729999999999999e+00 2.4282000000000000e+01 0.0000000000000000e+00 0 0 0
2406 444 1 4.1499999999999998e-01 3.3149461292267470e+00 2.4205561840526460e+01 6.8643007822984297e+00 1 -3 0
2404 444 2 -8.2999999999999996e-01 2.3720848453291992e+00 2.4146221389046797e+01 7.0183276689091754e+00 1 -3 0
2495 444 1 4.1499999999999998e-01 2.1137917999355591e+00 2.0580518205406197e+01 1.3112315959458337e+01 -1 1 0
1129 444 2 -8.2999999999999996e-01 2.9025875458713624e+00 2.1209046447315316e+01 1.1001158442920167e+01 -2 4 0
1130 444 1 4.1499999999999998e-01 2.6351099360837322e+00 2.1996374939756453e+01 1.0527026107671704e+01 -2 4 0
2757 444 1 4.1499999999999998e-01 2.8215160682902094e+00 2.4059782417312569e+01 9.8885648803722823e+00 -1 -2 0
2574 444 1 4.1499999999999998e-01 3.8801164614922605e+00 2.1888552079725365e+01 1.5725652102880803e+01 2 -2 0
2756 444 1 4.1499999999999998e-01 2.3348152399004753e+00 2.3379107288825779e+01 8.6269393874078375e+00 -1 -2 0
2755 444 2 -8.2999999999999996e-01 2.3399360606021657e+00 2.3292185090763613e+01 9.5801708286829523e+00 -1 -2 0
1131 444 1 4.1499999999999998e-01 2.8932818159235518e+00 2.0516342308466275e+01 1.0340623618669284e+01 -2 4 0
2573 444 1 4.1499999999999998e-01 3.5470138493615408e+00 2.3056448310848175e+01 1.6629508440719810e+01 2 -2 0
622 444 2 -8.2999999999999996e-01 3.2347292762907207e+00 2.0722823011807392e+01 1.9613392847326701e+01 5 0 0
2631 444 1 4.1499999999999998e-01 3.1171215900559250e+00 2.2323793990198478e+01 1.9913465038247349e+01 4 -1 0
2629 444 2 -8.2999999999999996e-01 3.0647840003142499e+00 2.3277718422412757e+01 1.9972801547355314e+01 4 -1 0
945 444 1 4.1499999999999998e-01 2.5222183537820562e+00 2.4396875952943279e+01 1.8586783073874585e+01 4 -1 0
2630 444 1 4.1499999999999998e-01 3.9710293528750626e+00 2.3573603392453116e+01 1.9886759139685012e+01 4 -1 0
2572 444 2 -8.2999999999999996e-01 3.1422457737564820e+00 2.2360989453664526e+01 1.6111115088594190e+01 2 -2 0
3178 444 4 0.0000000000000000e+00 3.4729999999999999e+00 2.7915800000000001e+01 0.0000000000000000e+00 0 0 0
3179 444 4 -7.4069999999999997e-02 3.4694300000000000e+00 2.7912410000000001e+01 3.5789800000000001e+00 0 0 0
3182 444 4 0.0000000000000000e+00 3.4729999999999999e+00 2.6098949999999999e+01 1.8169999999999999e+00 0 0 0
84 444 1 4.1499999999999998e-01 3.6041031237598471e+00 2.8529040215499297e+01 6.7088071341014697e+00 -5 3 0
2336 444 1 4.1499999999999998e-01 2.4719482542031894e+00 2.6964727385401414e+01 7.6198573649152923e+00 5 -2 0
2874 444 1 4.1499999999999998e-01 2.6763784684024636e+00 2.5863702470638923e+01 1.3576322174607565e+01 -6 -2 0
2873 444 1 4.1499999999999998e-01 2.8284654555809068e+00 2.7320729575649715e+01 1.3958208036163265e+01 -6 -2 0
1028 444 1 4.1499999999999998e-01 4.0363495504303293e+00 2.7252753733425276e+01 9.4784151239623533e+00 5 4 0
1027 444 2 -8.2999999999999996e-01 3.5869378692261251e+00 2.7091995577244134e+01 1.0308124865659270e+01 5 4 0
2872 444 2 -8.2999999999999996e-01 3.1746001900951386e+00 2.6448555643789827e+01 1.4147246086276901e+01 -6 -2 0
1029 444 1 4.1499999999999998e-01 2.7781220890594258e+00 2.7600036426531041e+01 1.0245326970050609e+01 5 4 0
1894 444 2 -8.2999999999999996e-01 2.2706515780123455e+00 2.7893095193252645e+01 1.7205781273537404e+01 6 6 0
1895 444 1 4.1499999999999998e-01 3.0378445431462651e+00 2.7463070241201521e+01 1.6827990087101782e+01 6 6 0
2170 444 2 -8.2999999999999996e-01 3.8841178008800217e+00 2.7786552345224557e+01 1.9937779260492217e+01 6 -2 0
1896 444 1 4.1499999999999998e-01 2.4521880530808238e+00 2.7925994073900540e+01 1.8145033455430795e+01 6 6 0
3198 444 4 0.0000000000000000e+00 3.4729999999999999e+00 3.1549700000000001e+01 0.0000000000000000e+00 0 0 0
3199 444 4 -7.4069999999999997e-02 3.4850400000000001e+00 3.1573260000000001e+01 3.5865999999999998e+00 0 0 0
3202 444 4 0.0000000000000000e+00 3.4729999999999999e+00 2.9732749999999999e+01 1.8169999999999999e+00 0 0 0
83 444 1 4.1499999999999998e-01 3.6040814059114035e+00 2.9953451695364350e+01 6.1960234184507650e+00 -5 3 0
82 444 2 -8.2999999999999996e-01 3.0449717915161822e+00 2.9300530821478038e+01 6.6171205057796714e+00 -5 3 0
1237 444 2 -8.2999999999999996e-01 3.5761635128475815e+00 3.2131370363291389e+01 6.7155367056787156e+00 1 1 0
1238 444 1 4.1499999999999998e-01 2.9037696460287443e+00 3.1627016857520658e+01 6.2575562241133964e+00 1 1 0
1594 444 2 -8.2999999999999996e-01 3.7542544857961402e+00 3.0835051275183918e+01 9.2426868621032696e+00 5 2 0
147 444 1 4.1499999999999998e-01 3.0060073342147260e+00 2.9244871675405008e+01 1.2106832448888317e+01 5 -3 0
3023 444 3 1.0000000000000000e+00 2.9998861804912393e+00 3.0472810158086954e+01 1.4945050878581840e+01 0 -5 0
1145 444 1 4.1499999999999998e-01 2.3811221286282653e+00 3.0170560135640578e+01 1.0449054965956545e+01 1 0 0
1595 444 1 4.1499999999999998e-01 3.6510181400465553e+00 3.0534176183062442e+01 8.3398862592839063e+00 5 2 0
145 444 2 -8.2999999999999996e-01 3.7167225894539340e+00 2.9065384637476559e+01 1.2722381842341857e+01 5 -3 0
40 444 2 -8.2999999999999996e-01 3.5680842866648290e+00 3.2546868000577113e+01 1.3233387150037448e+01 5 2 0
888 444 1 4.1499999999999998e-01 2.7072583717841012e+00 3.1718322508346585e+01 1.7698315691490595e+01 2 -4 0
886 444 2 -8.2999999999999996e-01 3.5143286419346862e+00 3.1515535069437416e+01 1.7225296024773865e+01 2 -4 0
3054 444 4 0.0000000000000000e+00 5.2898399999999999e+00 6.6205000000000003e-01 0.0000000000000000e+00 0 0 0
3055 444 4 -7.4069999999999997e-02 5.2893299999999996e+00 6.7325999999999997e-01 3.5857000000000001e+00 0 0 0
3057 444 4 0.0000000000000000e+00 5.2898399999999999e+00 2.4790000000000001e+00 1.8169999999999999e+00 0 0 0
1142 444 1 4.1499999999999998e-01 4.1595123741009914e+00 2.0285368877591474e+00 7.7562438749514344e+00 2 0 0
1143 444 1 4.1499999999999998e-01 5.5730296361576279e+00 2.5561386818172194e+00 7.6317429083218986e+00 2 0 0
2081 444 1 4.1499999999999998e-01 5.9760962677122791e+00 4.0656067395492039e+00 6.9775677376594407e+00 5 3 0
1442 444 1 4.1499999999999998e-01 4.3722374620298758e+00 3.6489689366463200e+00 1.5437823426937392e+01 3 -2 0
2342 444 1 4.1499999999999998e-01 5.7327176559805544e+00 3.6258988341427965e+00 1.0746337654589450e+01 1 -4 0
1441 444 2 -8.2999999999999996e-01 5.2826801794309430e+00 3.5860650203228883e+00 1.5726561647045312e+01 3 -2 0
2343 444 1 4.1499999999999998e-01 6.0961628567354991e+00 2.9447199888033992e+00 1.2048565895283318e+01 1 -4 0
629 444 1 4.1499999999999998e-01 5.7006884733114731e+00 3.5047222069508233e-01 8.5253769356573663e+00 3 3 0
1141 444 2 -8.2999999999999996e-01 5.0374439180289343e+00 1.9357281206742607e+00 8.1261825258099609e+00 2 0 0
2341 444 2 -8.2999999999999996e-01 5.4133355727238319e+00 2.9823156899453114e+00 1.1378815546180304e+01 1 -4 0
2323 444 2 -8.2999999999999996e-01 5.5879448691087061e+00 1.8972318942808462e+00 1.7948577829333860e+01 3 2 0
2325 444 1 4.1499999999999998e-01 5.6844459525154649e+00 2.5414363975773635e+00 1.7247207433704226e+01 3 2 0
2931 444 1 4.1499999999999998e-01 5.5794109552003750e+00 4.0233865057016543e-01 1.8620407908106529e+01 -1 1 0
3076 444 4 0.0000000000000000e+00 5.2898399999999999e+00 4.2959500000000004e+00 0.0000000000000000e+00 0 0 0