LAMMPS data file via write_data, version 11 Aug 2017, timestep = 1000000

3588 atoms
12 atom types
2024 bonds
5 bond types
1018 angles
5 angle types
12 dihedrals
4 dihedral types
9 impropers
1 improper types

0.0000000000000000e+00 3.2704500000000003e+01 xlo xhi
0.0000000000000000e+00 3.2704500000000003e+01 ylo yhi
0.0000000000000000e+00 8.0000000000000000e+01 zlo zhi

Masses

1 1.0079
2 15.9994
3 39.0983
4 63.546
5 12.011
6 15.9994
7 1.0079
8 12.011
9 15.9994
10 15.9994
11 15.9994
12 1.0079

Bond Coeffs # harmonic

1 450 0.9572
2 570 1.229
3 450 1.364
4 570 1.229
5 553 0.945

Angle Coeffs # harmonic

1 100 123.32
2 85 124
3 55 104.52
4 35 113
5 100 123.32

Dihedral Coeffs # charmm

1 0.922 1 180 0
2 3.741 2 0 0
3 0.922 1 0 0
4 3.741 2 180 0

Improper Coeffs # umbrella

1 21 0

Atoms # full

3049 444 4 -7.4069999999999997e-02 1.6695199999999999e+00 6.6232999999999997e-01 3.5990700000000002e+00 0 0 0
3050 444 4 0.0000000000000000e+00 3.4729999999999999e+00 6.6205000000000003e-01 1.8169999999999999e+00 0 0 0
3051 444 4 0.0000000000000000e+00 1.6560500000000000e+00 2.4790000000000001e+00 1.8169999999999999e+00 0 0 0
3054 444 4 0.0000000000000000e+00 5.2898399999999999e+00 6.6205000000000003e-01 0.0000000000000000e+00 0 0 0
3055 444 4 -7.4069999999999997e-02 5.2727100000000000e+00 6.5729000000000004e-01 3.6000100000000002e+00 0 0 0
3057 444 4 0.0000000000000000e+00 5.2898399999999999e+00 2.4790000000000001e+00 1.8169999999999999e+00 0 0 0
3060 444 4 0.0000000000000000e+00 1.6560500000000000e+00 6.6205000000000003e-01 0.0000000000000000e+00 0 0 0
3064 444 4 0.0000000000000000e+00 3.4729999999999999e+00 6.1128000000000000e+00 0.0000000000000000e+00 0 0 0
3065 444 4 -7.4069999999999997e-02 3.4737100000000001e+00 6.1134700000000004e+00 3.5873800000000000e+00 0 0 0
3066 444 4 0.0000000000000000e+00 1.6560500000000000e+00 4.2959500000000004e+00 0.0000000000000000e+00 0 0 0
3067 444 4 -7.4069999999999997e-02 1.6566500000000000e+00 4.2999200000000002e+00 3.5734499999999998e+00 0 0 0
3068 444 4 0.0000000000000000e+00 3.4729999999999999e+00 4.2959500000000004e+00 1.8169999999999999e+00 0 0 0
3069 444 4 0.0000000000000000e+00 1.6560500000000000e+00 6.1128000000000000e+00 1.8169999999999999e+00 0 0 0
3074 444 4 -7.4069999999999997e-02 3.4674000000000000e+00 2.4639099999999998e+00 3.5997499999999998e+00 0 0 0
3075 444 4 0.0000000000000000e+00 3.4729999999999999e+00 2.4790000000000001e+00 0.0000000000000000e+00 0 0 0
3076 444 4 0.0000000000000000e+00 5.2898399999999999e+00 4.2959500000000004e+00 0.0000000000000000e+00 0 0 0
3077 444 4 0.0000000000000000e+00 5.2898399999999999e+00 6.1128000000000000e+00 1.8169999999999999e+00 0 0 0
3086 444 4 0.0000000000000000e+00 1.6560500000000000e+00 7.9297500000000003e+00 0.0000000000000000e+00 0 0 0
3087 444 4 -7.4069999999999997e-02 1.6787600000000000e+00 7.9480199999999996e+00 3.5819899999999998e+00 0 0 0
3088 444 4 0.0000000000000000e+00 3.4729999999999999e+00 7.9297500000000003e+00 1.8169999999999999e+00 0 0 0
3092 444 4 0.0000000000000000e+00 5.2898399999999999e+00 7.9297500000000003e+00 0.0000000000000000e+00 0 0 0
3093 444 4 -7.4069999999999997e-02 5.2852499999999996e+00 7.9317200000000003e+00 3.5726000000000000e+00 0 0 0
3101 444 4 -7.4069999999999997e-02 5.2543199999999999e+00 4.2666599999999999e+00 3.5820200000000000e+00 0 0 0
1253 444 1 4.1499999999999998e-01 2.2869657368416636e+00 4.5256825392886029e+00 7.6792993046994287e+00 3 -1 0
1254 444 1 4.1499999999999998e-01 2.7621174433716988e+00 3.0898445514006094e+00 7.7463502347227227e+00 3 -1 0
1229 444 1 4.1499999999999998e-01 2.2970762272805243e+00 6.0873558420521077e+00 6.3451840778492601e+00 2 5 0
1228 444 2 -8.2999999999999996e-01 1.5370015099139183e+00 5.6391539416009921e+00 6.7161745419319825e+00 2 5 0
1230 444 1 4.1499999999999998e-01 8.0061645502959267e-01 6.2218733220899809e+00 6.5306807019545037e+00 2 5 0
2492 444 1 4.1499999999999998e-01 3.9981084832543684e-01 4.2885628924425259e+00 6.7350222426659343e+00 1 0 0
1959 444 1 4.1499999999999998e-01 2.1693925961522695e+00 1.7931396090247342e+00 6.0929899219529373e+00 4 2 0
1958 444 1 4.1499999999999998e-01 1.1595356405647412e+00 1.3692667997912289e+00 7.1381772558405601e+00 4 2 0
1957 444 2 -8.2999999999999996e-01 2.0973023539923283e+00 1.5056138096322489e+00 7.0031349834657304e+00 4 2 0
1115 444 1 4.1499999999999998e-01 5.2786916609400274e+00 3.0083256206687135e+00 5.8321527954038714e+00 1 2 0
1231 444 2 -8.2999999999999996e-01 4.9294797868919638e+00 5.7969885437014588e+00 7.1346508613428625e+00 3 -1 0
1233 444 1 4.1499999999999998e-01 5.3192289243253166e+00 6.6295827005896486e+00 6.8679748366668356e+00 3 -1 0
1232 444 1 4.1499999999999998e-01 4.8273867509191541e+00 5.3074549997203251e+00 6.3184608912274989e+00 3 -1 0
1793 444 1 4.1499999999999998e-01 2.8332844093601874e+00 3.9416453164010254e-02 6.9305378775052029e+00 -1 5 0
1252 444 2 -8.2999999999999996e-01 2.6477546183900360e+00 3.8750998333060989e+00 8.2816327339815174e+00 3 -1 0
1269 444 1 4.1499999999999998e-01 5.3419315466624111e+00 3.9274131350584200e+00 1.2841973311195389e+01 -3 5 0
1234 444 2 -8.2999999999999996e-01 3.3131340783275722e+00 2.0005648167081094e+00 1.0673637542029963e+01 0 -1 0
768 444 1 4.1499999999999998e-01 3.6179604896580040e+00 4.6930191554205622e+00 1.2118933492586690e+01 0 2 0
1577 444 1 4.1499999999999998e-01 1.2084069620145019e+00 5.3217635582661096e+00 1.3202614780329380e+01 -4 -1 0
1560 444 1 4.1499999999999998e-01 3.7285593882885997e+00 1.0593211607655268e+00 1.2747522357867696e+01 -3 3 0
1578 444 1 4.1499999999999998e-01 1.9407523072087804e+00 5.9036594172533183e+00 1.2012252237846749e+01 -4 -1 0
1930 444 2 -8.2999999999999996e-01 3.3644191487515664e+00 6.1211916523744572e+00 1.5024599352687284e+01 -1 2 0
1931 444 1 4.1499999999999998e-01 3.0246517319011934e+00 5.9274186054143332e+00 1.4150962068550349e+01 -1 2 0
1576 444 2 -8.2999999999999996e-01 2.0872268902239659e+00 5.4997318656477381e+00 1.2867599883874860e+01 -4 -1 0
119 444 1 4.1499999999999998e-01 1.6367452030894347e-02 1.9947789916612821e+00 1.2005022252625285e+01 1 -2 0
767 444 1 4.1499999999999998e-01 3.9266643030093622e+00 3.5901288471264210e+00 1.1128867444413729e+01 0 2 0
879 444 1 4.1499999999999998e-01 4.6083461207229826e-01 7.1529766839185260e+00 9.7235484557567879e+00 -1 0 0
1236 444 1 4.1499999999999998e-01 2.4993820418943775e+00 2.0884926498072964e+00 1.1169933095941825e+01 0 -1 0
766 444 2 -8.2999999999999996e-01 4.3001343058302801e+00 4.3765573227097345e+00 1.1526714807120213e+01 0 2 0
118 444 2 -8.2999999999999996e-01 6.2107295035431942e-01 2.6039318340977800e+00 1.1581351826787465e+01 1 -2 0
1558 444 2 -8.2999999999999996e-01 3.9836561530934667e+00 1.2762678134637131e+00 1.3644234186979146e+01 -3 3 0
2260 444 2 -8.2999999999999996e-01 1.6908140611052787e+00 5.7944043508551015e+00 9.9907946360039670e+00 -1 -5 0
2262 444 1 4.1499999999999998e-01 2.3603703459422181e+00 6.4466070687063848e+00 9.7844988989206296e+00 -1 -5 0
2261 444 1 4.1499999999999998e-01 1.9565447060630567e+00 5.0150195148236110e+00 9.5027593934584846e+00 -1 -5 0
1235 444 1 4.1499999999999998e-01 3.0322653589078170e+00 1.7403239086381737e+00 9.7963577099988157e+00 0 -1 0
129 444 1 4.1499999999999998e-01 5.3489014391016791e+00 4.5713872812345890e+00 1.0131838040242895e+01 6 2 0
1932 444 1 4.1499999999999998e-01 3.4276396145611048e+00 7.0759314524723314e+00 1.5051192233107903e+01 -1 2 0
196 444 2 -8.2999999999999996e-01 3.6100880392767856e+00 7.2755602122316452e+00 8.9614701407834527e+00 4 -3 0
188 444 1 4.1499999999999998e-01 3.5668415095635880e-01 1.9681884663047473e+00 1.5883062586508540e+01 1 -1 0
197 444 1 4.1499999999999998e-01 3.5650750206348940e+00 7.9817890994981759e+00 8.3169185383666342e+00 4 -3 0
198 444 1 4.1499999999999998e-01 4.3815777018724376e+00 6.7685733933711205e+00 8.7084879617298014e+00 4 -3 0
1219 444 2 -8.2999999999999996e-01 4.3597892718851927e+00 3.7850308023564003e+00 1.5876285849686765e+01 -1 4 0
120 444 1 4.1499999999999998e-01 3.7569673373160739e-01 3.4632055793217527e+00 1.1924386202384518e+01 1 -2 0
1559 444 1 4.1499999999999998e-01 4.5415668012304806e+00 2.0489022762477780e+00 1.3554766959647377e+01 -3 3 0
1221 444 1 4.1499999999999998e-01 3.9946631228199694e+00 4.5807895490775890e+00 1.5489396709733397e+01 -1 4 0
1220 444 1 4.1499999999999998e-01 4.6501569585288181e+00 3.2652055095317127e+00 1.5126819248182308e+01 -1 4 0
128 444 1 4.1499999999999998e-01 5.3700726920850901e+00 4.8486961646567233e+00 8.6437024011651769e+00 6 2 0
1661 444 1 4.1499999999999998e-01 3.5441788695796039e+00 7.8072567633794625e+00 1.7778902699572896e+01 -1 4 0
40 444 2 -8.2999999999999996e-01 5.2671042104601540e+00 8.3935110603799179e-01 1.8890820470818888e+01 -1 -1 0
221 444 1 4.1499999999999998e-01 2.3809198030471102e+00 8.0796150732514445e+00 1.9767909922552807e+01 2 -3 0
2031 444 1 4.1499999999999998e-01 3.7346969402511463e+00 1.6604036101918256e+00 1.8185388283682457e+01 2 0 0
2030 444 1 4.1499999999999998e-01 3.3134108944884058e+00 2.4461243764791689e+00 1.6961845556655092e+01 2 0 0
2029 444 2 -8.2999999999999996e-01 2.9811935499008584e+00 1.8384005246100104e+00 1.7622554081832678e+01 2 0 0
2079 444 1 4.1499999999999998e-01 6.2782548257056016e-03 6.6770160542743877e+00 1.9490103737442823e+01 -1 -3 0
1660 444 2 -8.2999999999999996e-01 3.0748789526577966e+00 7.2736354668299761e+00 1.8420181034268339e+01 -1 4 0
41 444 1 4.1499999999999998e-01 4.6641209769540160e+00 8.1967040938781510e-01 1.9633960003810486e+01 -1 -1 0
189 444 1 4.1499999999999998e-01 1.3691219349448966e+00 1.6856183384010541e+00 1.6972566705975346e+01 1 -1 0
2932 444 2 -8.2999999999999996e-01 5.0294925437824096e+00 4.9416197352235498e+00 1.9900064829814660e+01 5 6 0
8 444 1 4.1499999999999998e-01 2.3615214597551799e+00 5.7512759755264913e+00 1.6146729796641132e+01 0 3 0
2934 444 1 4.1499999999999998e-01 4.4816960508293899e+00 5.6388690447930312e+00 1.9539517213431470e+01 5 6 0
7 444 2 -8.2999999999999996e-01 1.5271791709115214e+00 5.6137604041646760e+00 1.6595276720430174e+01 0 3 0
1023 444 1 4.1499999999999998e-01 5.3997225352206319e+00 3.4586701957298378e+00 1.7091054988450857e+01 -1 2 0
1662 444 1 4.1499999999999998e-01 2.4257293553416743e+00 6.7947854790223712e+00 1.7904874677570277e+01 -1 4 0
9 444 1 4.1499999999999998e-01 1.1920129691231371e+00 4.7937923436725409e+00 1.6232581296859500e+01 0 3 0
187 444 2 -8.2999999999999996e-01 6.9066903919715317e-01 1.2671064147817301e+00 1.6442678608875610e+01 1 -1 0
2933 444 1 4.1499999999999998e-01 5.1816590773023226e+00 4.3504554778345534e+00 1.9162770491280913e+01 5 6 0
623 444 1 4.1499999999999998e-01 1.0914503943667495e+00 2.4037585079141999e+00 1.9534892205637483e+01 1 -1 0
3084 444 4 0.0000000000000000e+00 3.4729999999999999e+00 9.7467000000000006e+00 0.0000000000000000e+00 0 0 0
3085 444 4 -7.4069999999999997e-02 3.4734200000000000e+00 9.7588500000000007e+00 3.5988799999999999e+00 0 0 0
3089 444 4 0.0000000000000000e+00 1.6560500000000000e+00 9.7467000000000006e+00 1.8169999999999999e+00 0 0 0
3095 444 4 0.0000000000000000e+00 5.2898399999999999e+00 9.7467000000000006e+00 1.8169999999999999e+00 0 0 0
3109 444 4 -7.4069999999999997e-02 1.6695199999999999e+00 1.1563829999999999e+01 3.5990700000000002e+00 0 0 0
3110 444 4 0.0000000000000000e+00 3.4729999999999999e+00 1.1563549999999999e+01 1.8169999999999999e+00 0 0 0
3111 444 4 0.0000000000000000e+00 1.6560500000000000e+00 1.3380500000000000e+01 1.8169999999999999e+00 0 0 0
3114 444 4 0.0000000000000000e+00 5.2898399999999999e+00 1.1563549999999999e+01 0.0000000000000000e+00 0 0 0
3115 444 4 -7.4069999999999997e-02 5.2727100000000000e+00 1.1558790000000000e+01 3.6000200000000002e+00 0 0 0
3117 444 4 0.0000000000000000e+00 5.2898399999999999e+00 1.3380500000000000e+01 1.8169999999999999e+00 0 0 0
3120 444 4 0.0000000000000000e+00 1.6560500000000000e+00 1.1563549999999999e+01 0.0000000000000000e+00 0 0 0
3126 444 4 0.0000000000000000e+00 1.6560500000000000e+00 1.5197450000000000e+01 0.0000000000000000e+00 0 0 0
3127 444 4 -7.4069999999999997e-02 1.6566500000000000e+00 1.5201420000000001e+01 3.5734499999999998e+00 0 0 0
3128 444 4 0.0000000000000000e+00 3.4729999999999999e+00 1.5197450000000000e+01 1.8169999999999999e+00 0 0 0
3134 444 4 -7.4069999999999997e-02 3.4674000000000000e+00 1.3365410000000001e+01 3.5997499999999998e+00 0 0 0
3135 444 4 0.0000000000000000e+00 3.4729999999999999e+00 1.3380500000000000e+01 0.0000000000000000e+00 0 0 0
3136 444 4 0.0000000000000000e+00 5.2898399999999999e+00 1.5197450000000000e+01 0.0000000000000000e+00 0 0 0
3161 444 4 -7.4069999999999997e-02 5.2543199999999999e+00 1.5168160000000000e+01 3.5820200000000000e+00 0 0 0
2239 444 2 -8.2999999999999996e-01 7.5814321180848343e-01 8.6622369537341246e+00 6.7000667156992924e+00 3 2 0
2917 444 2 -8.2999999999999996e-01 2.9700525403680977e+00 1.1206904565565528e+01 6.8060368609842454e+00 1 -3 0
2919 444 1 4.1499999999999998e-01 3.3905836449968327e+00 1.1803263230531297e+01 6.1865677435160897e+00 1 -3 0
2240 444 1 4.1499999999999998e-01 1.6642885178112736e+00 8.6006440773508288e+00 6.3978430350481945e+00 3 2 0
889 444 2 -8.2999999999999996e-01 3.5673605009851772e+00 8.8368826707676327e+00 6.7220339811438503e+00 -1 0 0
2918 444 1 4.1499999999999998e-01 2.0327243080403119e+00 1.1363086114070873e+01 6.6909064905835569e+00 1 -3 0
400 444 2 -8.2999999999999996e-01 4.7786554388689051e-01 1.2275169254330120e+01 6.7623222796479174e+00 -1 0 0
2374 444 2 -8.2999999999999996e-01 3.3589343834309564e+00 1.5496854896635119e+01 7.2350841411948013e+00 -1 0 0
2375 444 1 4.1499999999999998e-01 3.1798989019298589e+00 1.5630158478208097e+01 6.3042731451418721e+00 -1 0 0
890 444 1 4.1499999999999998e-01 3.4717839407498210e+00 9.7892951756438613e+00 6.7193022469605390e+00 -1 0 0
2376 444 1 4.1499999999999998e-01 2.9882648523736810e+00 1.6268323773415879e+01 7.6636542961713463e+00 -1 0 0
891 444 1 4.1499999999999998e-01 4.2355509588825324e+00 8.6608435395955219e+00 6.0596415900615384e+00 -1 0 0
401 444 1 4.1499999999999998e-01 6.2120517705200318e-01 1.3183674018954992e+01 7.0274736158772715e+00 -1 0 0
2241 444 1 4.1499999999999998e-01 7.6481039788507743e-01 9.3794106340051790e+00 7.3339826134224593e+00 3 2 0
636 444 1 4.1499999999999998e-01 2.7409951283508099e-01 1.5902482002836086e+01 7.3323723885583743e+00 2 -1 0
308 444 1 4.1499999999999998e-01 5.0898391912188012e+00 1.4659967649044328e+01 6.6867440288309652e+00 1 0 0
75 444 1 4.1499999999999998e-01 5.2877993935011629e+00 1.1142955151033522e+01 6.4992736221598379e+00 3 -2 0
2804 444 1 4.1499999999999998e-01 5.2999357685533333e-01 1.1186102257967036e+01 8.3597871666361261e+00 5 -7 0
831 444 1 4.1499999999999998e-01 3.0178357607435891e-01 9.3400712729129367e+00 1.2706832883007245e+01 1 0 0
2361 444 1 4.1499999999999998e-01 2.3772358797638815e+00 1.1681411350789093e+01 1.3485689552562006e+01 1 -1 0
1137 444 1 4.1499999999999998e-01 2.6651123088277280e+00 1.3108804120245180e+01 9.5122147188102613e+00 0 -1 0
2714 444 1 4.1499999999999998e-01 3.1579947138051883e+00 1.1236902582650439e+01 8.4470605218560504e+00 -2 0 0
2326 444 2 -8.2999999999999996e-01 3.3551042083267935e+00 8.9721279064811039e+00 1.1121734737653933e+01 4 -4 0
1135 444 2 -8.2999999999999996e-01 2.5788683713785043e+00 1.4062107207731675e+01 9.5149509053584591e+00 0 -1 0
1136 444 1 4.1499999999999998e-01 3.0227799568435101e+00 1.4345529029342220e+01 8.7156715861131691e+00 0 -1 0
2713 444 2 -8.2999999999999996e-01 3.5343016156346878e+00 1.1382323865297991e+01 9.3150916569449347e+00 -2 0 0
2715 444 1 4.1499999999999998e-01 3.1823920850221654e+00 1.0671798977459442e+01 9.8513249141862858e+00 -2 0 0
1046 444 1 4.1499999999999998e-01 4.5875846249472535e-01 1.1305782429600578e+01 1.1940789641605093e+01 1 1 0
1693 444 2 -8.2999999999999996e-01 3.9351212123722870e+00 1.0899649493016064e+01 1.2902197615189118e+01 3 4 0
1694 444 1 4.1499999999999998e-01 3.5929427715760998e+00 1.0337875840855764e+01 1.2206815413579571e+01 3 4 0
510 444 1 4.1499999999999998e-01 1.0849103595064653e+00 1.5411249258129594e+01 1.3942646569387012e+01 -5 0 0
2327 444 1 4.1499999999999998e-01 2.4522950402897026e+00 8.7943566137053821e+00 1.1385488457357642e+01 4 -4 0
830 444 1 4.1499999999999998e-01 2.0337095925473198e-01 8.4502922617288885e+00 1.1485970809427458e+01 1 0 0
1045 444 2 -8.2999999999999996e-01 1.5437082940806690e-01 1.1683874286433829e+01 1.1115788157335476e+01 1 1 0
678 444 1 4.1499999999999998e-01 4.9602873830258511e+00 1.2398009604475883e+01 9.2727775965703270e+00 0 -1 0
1695 444 1 4.1499999999999998e-01 4.3015726503682865e+00 1.1654827209471232e+01 1.2442141294814945e+01 3 4 0
691 444 2 -8.2999999999999996e-01 4.2419331879556896e+00 1.1896112907723955e+01 1.5610890406779451e+01 -2 2 0
692 444 1 4.1499999999999998e-01 4.3032902563197792e+00 1.1287627414365019e+01 1.4874539158865574e+01 -2 2 0
2328 444 1 4.1499999999999998e-01 3.6182326862799377e+00 8.1954650508539455e+00 1.0627982866736229e+01 4 -4 0
2504 444 1 4.1499999999999998e-01 5.0188421866382011e+00 8.5552413736195643e+00 1.4992749018004888e+01 -3 3 0
2067 444 1 4.1499999999999998e-01 5.2628159493026825e+00 1.5404980316051233e+01 1.3573439446145846e+01 0 6 0
829 444 2 -8.2999999999999996e-01 8.0540874617716052e-01 9.0280251811794496e+00 1.1955020960954592e+01 1 0 0
509 444 1 4.1499999999999998e-01 2.4492700373863285e+00 1.5038991489786437e+01 1.3402421897145123e+01 -5 0 0
1278 444 1 4.1499999999999998e-01 2.5858292078680964e+00 9.0691973379264024e+00 1.5434166900366245e+01 1 3 0
2359 444 2 -8.2999999999999996e-01 1.5081157789321777e+00 1.2049563651799522e+01 1.3644832477137705e+01 1 -1 0
1848 444 1 4.1499999999999998e-01 1.3928916143259293e+00 1.1457165283738815e+01 1.5537258881078928e+01 0 -1 0
2592 444 1 4.1499999999999998e-01 1.5754479146490989e+00 1.5220064187315717e+01 1.0227196619775716e+01 -2 1 0
2805 444 1 4.1499999999999998e-01 7.1847905807246637e-01 1.0512399171985402e+01 9.7023570699330399e+00 5 -7 0
1277 444 1 4.1499999999999998e-01 3.2636930340354633e+00 9.2594986406658464e+00 1.4093949950131647e+01 1 3 0
2590 444 2 -8.2999999999999996e-01 9.6814467428319329e-01 1.5918972034366339e+01 1.0469977383657277e+01 -2 1 0
2478 444 1 4.1499999999999998e-01 5.3101318654125462e+00 1.4719562987267025e+01 1.5692926450902181e+01 5 -10 0
508 444 2 -8.2999999999999996e-01 1.5769107831211939e+00 1.4681082851120415e+01 1.3567112900269587e+01 -5 0 0
2803 444 2 -8.2999999999999996e-01 8.0077742593108125e-01 1.0360265696916361e+01 8.7609139673082943e+00 5 -7 0
1047 444 1 4.1499999999999998e-01 3.5858049260567104e-01 1.2616147470271905e+01 1.1189255387348304e+01 1 1 0
1276 444 2 -8.2999999999999996e-01 3.3001543293476128e+00 8.7333224276496608e+00 1.4892724730906016e+01 1 3 0
2360 444 1 4.1499999999999998e-01 1.6538204993676342e+00 1.2994052894317651e+01 1.3699089416130253e+01 1 -1 0
2477 444 1 4.1499999999999998e-01 4.6193384099972272e+00 1.3657406334489444e+01 1.4864359059030011e+01 5 -10 0
2476 444 2 -8.2999999999999996e-01 4.9238195956716932e+00 1.4564275676143685e+01 1.4831021145140303e+01 5 -10 0
2065 444 2 -8.2999999999999996e-01 5.1007764176677126e+00 1.6026061230666894e+01 1.2863345280724664e+01 0 6 0
642 444 1 4.1499999999999998e-01 5.4364580827917752e+00 1.3086326685635477e+01 1.0882297031602606e+01 -2 -1 0
2066 444 1 4.1499999999999998e-01 4.9353404454318213e+00 1.5476727455357826e+01 1.2097123831086781e+01 0 6 0
1847 444 1 4.1499999999999998e-01 1.7972183077657089e+00 1.0964277407499100e+01 1.6910385965184680e+01 0 -1 0
783 444 1 4.1499999999999998e-01 9.9778138307332398e-01 1.3457545436322629e+01 1.7087621243336788e+01 0 -1 0
1846 444 2 -8.2999999999999996e-01 1.6126239379970837e+00 1.0661200127252719e+01 1.6021397133286484e+01 0 -1 0
693 444 1 4.1499999999999998e-01 4.4846239194399420e+00 1.1373309961408289e+01 1.6375096391384755e+01 -2 2 0
1979 444 1 4.1499999999999998e-01 4.1849789105790434e+00 1.0405048661169229e+01 1.8745780894342822e+01 -4 0 0
375 444 1 4.1499999999999998e-01 3.1231804432000443e+00 1.4377916624010631e+01 1.6508696537562287e+01 0 0 0
374 444 1 4.1499999999999998e-01 2.9743016657756640e+00 1.2877342830253180e+01 1.6374496126966250e+01 0 0 0
2223 444 1 4.1499999999999998e-01 3.2713009201238341e+00 1.2868329797236751e+01 1.9121765762043754e+01 0 0 0
373 444 2 -8.2999999999999996e-01 2.6162949839005560e+00 1.3635189874134598e+01 1.6836806923849860e+01 0 0 0
1978 444 2 -8.2999999999999996e-01 4.4880273133772315e+00 1.0008545886445697e+01 1.7928970078520976e+01 -4 0 0
1980 444 1 4.1499999999999998e-01 5.3678692917112567e+00 9.6891498968079546e+00 1.8129213449518236e+01 -4 0 0
1282 444 2 -8.2999999999999996e-01 2.2429985873900313e+00 1.5759923402649132e+01 1.9553776200754054e+01 -7 -1 0
1283 444 1 4.1499999999999998e-01 1.6437006774674172e+00 1.5480252908124644e+01 1.8861780066811040e+01 -7 -1 0
781 444 2 -8.2999999999999996e-01 4.7871471461018091e-02 1.3425086368275585e+01 1.7200978586295872e+01 0 -1 0
3124 444 4 0.0000000000000000e+00 3.4729999999999999e+00 1.7014299999999999e+01 0.0000000000000000e+00 0 0 0
3125 444 4 -7.4069999999999997e-02 3.4737100000000001e+00 1.7014970000000002e+01 3.5873800000000000e+00 0 0 0
3129 444 4 0.0000000000000000e+00 1.6560500000000000e+00 1.7014299999999999e+01 1.8169999999999999e+00 0 0 0
3137 444 4 0.0000000000000000e+00 5.2898399999999999e+00 1.7014299999999999e+01 1.8169999999999999e+00 0 0 0
3144 444 4 0.0000000000000000e+00 3.4729999999999999e+00 2.0648199999999999e+01 0.0000000000000000e+00 0 0 0
3145 444 4 -7.4069999999999997e-02 3.4734200000000000e+00 2.0660350000000001e+01 3.5988799999999999e+00 0 0 0
3146 444 4 0.0000000000000000e+00 1.6560500000000000e+00 1.8831250000000001e+01 0.0000000000000000e+00 0 0 0
3147 444 4 -7.4069999999999997e-02 1.6787600000000000e+00 1.8849519999999998e+01 3.5819899999999998e+00 0 0 0
3148 444 4 0.0000000000000000e+00 3.4729999999999999e+00 1.8831250000000001e+01 1.8169999999999999e+00 0 0 0
3149 444 4 0.0000000000000000e+00 1.6560500000000000e+00 2.0648199999999999e+01 1.8169999999999999e+00 0 0 0
3152 444 4 0.0000000000000000e+00 5.2898399999999999e+00 1.8831250000000001e+01 0.0000000000000000e+00 0 0 0
3153 444 4 -7.4069999999999997e-02 5.2852499999999996e+00 1.8833220000000001e+01 3.5726000000000000e+00 0 0 0
3155 444 4 0.0000000000000000e+00 5.2898399999999999e+00 2.0648199999999999e+01 1.8169999999999999e+00 0 0 0
3169 444 4 -7.4069999999999997e-02 1.6695199999999999e+00 2.2465330000000002e+01 3.5990700000000002e+00 0 0 0
3170 444 4 0.0000000000000000e+00 3.4729999999999999e+00 2.2465050000000002e+01 1.8169999999999999e+00 0 0 0
3171 444 4 0.0000000000000000e+00 1.6560500000000000e+00 2.4282000000000000e+01 1.8169999999999999e+00 0 0 0
3174 444 4 0.0000000000000000e+00 5.2898399999999999e+00 2.2465050000000002e+01 0.0000000000000000e+00 0 0 0
3175 444 4 -7.4069999999999997e-02 5.2727100000000000e+00 2.2460290000000001e+01 3.6000200000000002e+00 0 0 0
3177 444 4 0.0000000000000000e+00 5.2898399999999999e+00 2.4282000000000000e+01 1.8169999999999999e+00 0 0 0
3180 444 4 0.0000000000000000e+00 1.6560500000000000e+00 2.2465050000000002e+01 0.0000000000000000e+00 0 0 0
3194 444 4 -7.4069999999999997e-02 3.4674000000000000e+00 2.4266909999999999e+01 3.5997499999999998e+00 0 0 0
3195 444 4 0.0000000000000000e+00 3.4729999999999999e+00 2.4282000000000000e+01 0.0000000000000000e+00 0 0 0
979 444 2 -8.2999999999999996e-01 5.0472465460737981e-01 1.9877027305511639e+01 6.5780647260283596e+00 1 1 0
2545 444 2 -8.2999999999999996e-01 3.2612453453073540e+00 1.8941387190027925e+01 7.0525168655632529e+00 -1 -1 0
2547 444 1 4.1499999999999998e-01 4.1954113558739303e+00 1.9000946339647854e+01 7.2525635882927055e+00 -1 -1 0
463 444 2 -8.2999999999999996e-01 3.3446182810277825e+00 2.2552549560829327e+01 7.0395635523931883e+00 -4 1 0
464 444 1 4.1499999999999998e-01 3.1706939985228781e+00 2.2275125207199633e+01 6.1401086967466316e+00 -4 1 0
465 444 1 4.1499999999999998e-01 3.5566432145162628e+00 2.3483141996321283e+01 6.9669307071609721e+00 -4 1 0
980 444 1 4.1499999999999998e-01 1.4201451910852398e+00 1.9862433285457538e+01 6.2987357955749426e+00 1 1 0
2546 444 1 4.1499999999999998e-01 3.2290595240638291e+00 1.8684229366019036e+01 6.1310691597189244e+00 -1 -1 0
981 444 1 4.1499999999999998e-01 3.4163716653632953e-01 2.0789119580198534e+01 6.8183206973234931e+00 1 1 0
1018 444 2 -8.2999999999999996e-01 1.4221560442140430e-01 2.2588015484359531e+01 7.1753320863509362e+00 -1 1 0
846 444 1 4.1499999999999998e-01 4.8913457435851626e+00 2.1964390952396112e+01 6.6376646999633371e+00 1 -1 0
2927 444 1 4.1499999999999998e-01 1.6408916891631704e+00 1.8194338990727577e+01 7.6495681621132707e+00 0 2 0
1020 444 1 4.1499999999999998e-01 4.3451122216011889e-01 2.2574663198663991e+01 6.2639501700093030e+00 -1 1 0
1982 444 1 4.1499999999999998e-01 3.8372712641028044e+00 1.6801686958572745e+01 1.3583066017634845e+01 2 6 0
1164 444 1 4.1499999999999998e-01 2.9235664691939691e+00 2.2288262076382292e+01 8.6912870015862413e+00 4 1 0
1163 444 1 4.1499999999999998e-01 3.6764951497818021e+00 2.1905724951297799e+01 9.9477341627843607e+00 4 1 0
1981 444 2 -8.2999999999999996e-01 2.9832061587114103e+00 1.7207664429176496e+01 1.3731346119755051e+01 2 6 0
164 444 1 4.1499999999999998e-01 1.2724279675695633e+00 2.2017154711687393e+01 9.7671579616100939e+00 -2 1 0
1162 444 2 -8.2999999999999996e-01 2.8136653008699470e+00 2.2178601247207151e+01 9.6358124327804280e+00 4 1 0
2318 444 1 4.1499999999999998e-01 1.3728972871175311e+00 1.8482271350753781e+01 1.2075212111366520e+01 7 -1 0
165 444 1 4.1499999999999998e-01 1.4541090713695884e-01 2.2386486453924487e+01 8.8262424898668499e+00 -2 1 0
1634 444 1 4.1499999999999998e-01 3.7060234935651128e+00 2.0071073877672664e+01 1.2687300937179325e+01 4 4 0
1635 444 1 4.1499999999999998e-01 2.2795138388261655e+00 2.0568872545958769e+01 1.2591580843310728e+01 4 4 0
1633 444 2 -8.2999999999999996e-01 2.8218339111917223e+00 1.9793314704243340e+01 1.2447946071343939e+01 4 4 0
177 444 1 4.1499999999999998e-01 3.2464048469791442e+00 1.8271410341076685e+01 9.9229461808122927e+00 2 -5 0
750 444 1 4.1499999999999998e-01 3.1865753059271779e-02 2.4483699302907656e+01 1.4921317148066258e+01 6 6 0
2336 444 1 4.1499999999999998e-01 2.6726359372761261e+00 1.6714999626213672e+01 1.5369051680643731e+01 2 -2 0
2926 444 2 -8.2999999999999996e-01 1.1143622723264244e+00 1.7582795717660701e+01 8.1643628090066169e+00 0 2 0
2928 444 1 4.1499999999999998e-01 3.5146480007100805e-01 1.8092946247627808e+01 8.4363293209220274e+00 0 2 0
175 444 2 -8.2999999999999996e-01 4.1414852308030401e+00 1.8478364919728946e+01 1.0191707967402010e+01 2 -5 0
161 444 1 4.1499999999999998e-01 3.6456993017044188e+00 2.4196820074552267e+01 9.9814116601177556e+00 -3 0 0
1983 444 1 4.1499999999999998e-01 3.0516107622698323e+00 1.8068343198282300e+01 1.3318084747347944e+01 2 6 0
1876 444 2 -8.2999999999999996e-01 3.9927702862441794e-01 2.1176982995887894e+01 1.3723338270936008e+01 0 -5 0
1048 444 2 -8.2999999999999996e-01 5.1413429946582632e+00 2.2769749360154567e+01 1.3835634497486319e+01 3 -1 0
163 444 2 -8.2999999999999996e-01 3.1779535515859386e-01 2.2051995391011914e+01 9.7063738869996872e+00 -2 1 0
176 444 1 4.1499999999999998e-01 4.0379404962546088e+00 1.9095262733740462e+01 1.0916240763245542e+01 2 -5 0
1050 444 1 4.1499999999999998e-01 4.9165311907307565e+00 2.3618681908238653e+01 1.3454839104551599e+01 3 -1 0
1049 444 1 4.1499999999999998e-01 4.5511655015501464e+00 2.2678410947576559e+01 1.4583685302678871e+01 3 -1 0
2317 444 2 -8.2999999999999996e-01 5.1922198088222893e-01 1.8166105326728754e+01 1.1779391022857725e+01 7 -1 0
538 444 2 -8.2999999999999996e-01 5.2720285474278636e+00 2.0220257462653624e+01 1.2949013057141961e+01 0 0 0
2319 444 1 4.1499999999999998e-01 6.1021853552113647e-01 1.7213470856868710e+01 1.1758412425966394e+01 7 -1 0
1878 444 1 4.1499999999999998e-01 4.5714600063748900e-01 2.0265957425253031e+01 1.3435387842274896e+01 0 -5 0
540 444 1 4.1499999999999998e-01 5.4058959449297745e+00 2.1046029025296850e+01 1.3414215608050068e+01 0 0 0
2591 444 1 4.1499999999999998e-01 8.9235228268656075e-01 1.6455816214450870e+01 9.6811264883252193e+00 -2 1 0
1667 444 1 4.1499999999999998e-01 4.3876836632564782e+00 1.7116497869432759e+01 1.8544916922178107e+01 -3 0 0
2449 444 2 -8.2999999999999996e-01 3.8787156542357826e+00 2.2928858557566002e+01 1.6054026303343676e+01 2 0 0
1284 444 1 4.1499999999999998e-01 1.7984120642982491e+00 1.6496689571477322e+01 1.9973002952443668e+01 -7 -1 0
2451 444 1 4.1499999999999998e-01 4.4791037297954253e+00 2.3049291035489070e+01 1.6789731456823922e+01 2 0 0
265 444 2 -8.2999999999999996e-01 2.5044443977357794e-01 2.0236307834242890e+01 1.7685671759030097e+01 -1 1 0
759 444 1 4.1499999999999998e-01 1.9619478725648052e+00 1.8281941863284992e+01 1.8864999234476922e+01 1 -3 0
757 444 2 -8.2999999999999996e-01 2.2362712522112713e+00 1.8681190015119864e+01 1.8039420797003896e+01 1 -3 0
2335 444 2 -8.2999999999999996e-01 2.4161704305789158e+00 1.6456859202841546e+01 1.6254388443216012e+01 2 -2 0
1668 444 1 4.1499999999999998e-01 4.8693978460053540e+00 1.7545999449147732e+01 1.9914360260477313e+01 -3 0 0
2450 444 1 4.1499999999999998e-01 3.0190551908941630e+00 2.2821101253408436e+01 1.6460971346399944e+01 2 0 0
208 444 2 -8.2999999999999996e-01 4.1769750158700205e+00 2.0321982501100468e+01 1.8532986409001733e+01 1 -1 0
1517 444 1 4.1499999999999998e-01 9.4511334135410330e-01 2.2333243673024107e+01 1.7992947186578554e+01 -3 1 0
266 444 1 4.1499999999999998e-01 9.0117574223043073e-01 1.9554875078181194e+01 1.7854288282828186e+01 -1 1 0
209 444 1 4.1499999999999998e-01 3.4357980684597349e+00 2.0004961145430187e+01 1.8016860348278605e+01 1 -1 0
1518 444 1 4.1499999999999998e-01 1.6625818052029846e+00 2.3666188261185393e+01 1.7973117480252380e+01 -3 1 0
1516 444 2 -8.2999999999999996e-01 1.4378675891233266e+00 2.2919178730729485e+01 1.7418399312655581e+01 -3 1 0
2728 444 2 -8.2999999999999996e-01 4.5101965599613747e+00 2.2825923921798108e+01 1.8658907278745698e+01 1 -1 0