Created by /appl/scripts/createLammpsInput.pl on Tue Mar  8 11:09:15 2022

        3480 atoms
        2012 bonds
        1012 angles
          12 dihedrals
           9 impropers

          11 atom types
           5 bond types
           5 angle types
           4 dihedral types
           1 improper types

           0.000000  30.466200 xlo xhi
           0.000000  35.179200 ylo yhi
           0.000000  65.000000 zlo zhi

Masses

    1   1.0079 # HW     
    2  15.9994 # OW     
    3  39.0983 # K      
    4 107.8682 # Ag     
    5  15.9994 # O_COO  
    6  12.0110 # C_COH  
    7  12.0110 # C1     
    8  15.9994 # O2     
    9  15.9994 # O3     
   10  15.9994 # O4     
   11   1.0079 # H5     
                

Bond Coeffs

    1             450          0.9572 # HW OW 
    2             570           1.229 # C1 O2 
    3             450           1.364 # C1 O4 
    4             570           1.229 # C1 O3 
    5             553           0.945 # O4 H5                 

Angle Coeffs

    1             100          123.32 # O2 C1 O4 
    2              85             124 # O2 C1 O3 
    3              55          104.52 # HW OW HW 
    4              35             113 # C1 O4 H5 
    5             100          123.32 # O3 C1 O4                 

Dihedral Coeffs

    1           0.922               1             180               0               # O2 C1 O4 H5 
    2           3.741               2               0               0               # 1O2 C1 O4 H5 
    3           0.922               1               0               0               # O3 C1 O4 H5 
    4           3.741               2             180               0               # 1O3 C1 O4 H5                 

Improper Coeffs

    1              21               0 # C1 X X X 

Atoms

       1      444        3     1.00000   27.96602   29.58586   13.38120    0    0    0
       2      444        3     1.00000    7.56471   25.08841   11.82096    0    0    0
       3      444        3     1.00000   17.60022   24.04961   10.95162    0    0    0
       4      444        3     1.00000    1.44905    6.07316   22.11495    0    0    0
       5      444        3     1.00000    5.85440    1.44620   14.03461    0    0    0
       6      444        3     1.00000    5.07564   18.45099   18.08786    0    0    0
       7      444        3     1.00000   12.36777    7.57244   17.71342    0    0    0
       8      444        3     1.00000   19.38699   13.12825   13.09493    0    0    0
       9      444        3     1.00000   14.34241   29.08402   21.06656    0    0    0
      10      444        3     1.00000   12.29892   27.82318   19.57326    0    0    0
      11      444        3     1.00000   17.33320   30.04005   15.05764    0    0    0
      12      444        3     1.00000    6.66542   15.72374   11.85837    0    0    0
      13      444        3     1.00000    4.75641    5.99980   18.40575    0    0    0
      14      444        3     1.00000   19.20743   21.39169   19.00205    0    0    0
      15      444        3     1.00000   18.91681    2.68939   14.22556    0    0    0
      16      444        7     1.08000    2.55659   10.06146   10.88461    0    0    0
      17      444        8    -0.86000    3.63010   10.47127   11.30521    0    0    0
      18      444        9    -0.80000    1.97462    9.12596   11.41853    0    0    0
      19      444       10    -0.78000    2.02861   10.67385    9.80771    0    0    0
      20      444       11     0.36000    2.67596   11.33001    9.62525    0    0    0
      21      444        7     1.08000    9.13347   28.21677   13.73914    0    0    0
      22      444        8    -0.86000   10.32018   28.49523   13.84594    0    0    0
      23      444        9    -0.80000    8.43279   28.72172   12.87136    0    0    0
      24      444       10    -0.78000    8.61493   27.33136   14.61129    0    0    0
      25      444       11     0.36000    9.36373   27.12323   15.13933    0    0    0
      26      444        7     1.08000   17.31220   15.68528   12.27794    0    0    0
      27      444        8    -0.86000   18.09542   15.32231   13.14514    0    0    0
      28      444        9    -0.80000   16.59326   14.88763   11.68987    0    0    0
      29      444       10    -0.78000   17.26308   16.99892   11.98566    0    0    0
      30      444       11     0.36000   17.90382   17.34965   12.57668    0    0    0
      31      444        2    -0.83000    2.51400   -0.75955   30.67957    0    0    0
      32      444        1     0.41500    2.57839   -1.58528   30.19971    0    0    0
      33      444        1     0.41500    3.40286   -0.40464   30.66686    0    0    0
      34      444        2    -0.83000   19.37817   31.12623   19.02894    0    0    0
      35      444        1     0.41500   19.38229   30.43455   18.36728    0    0    0
      36      444        1     0.41500   19.96468   31.79678   18.67880    0    0    0
      37      444        2    -0.83000   26.01552   25.37269   10.11666    0    0    0
      38      444        1     0.41500   26.86436   25.39995    9.67508    0    0    0
      39      444        1     0.41500   25.67059   24.50172    9.92004    0    0    0
      40      444        2    -0.83000   23.64423   23.74356   11.31274    0    0    0
      41      444        1     0.41500   23.73653   23.21432   12.10497    0    0    0
      42      444        1     0.41500   24.30118   23.39237   10.71164    0    0    0
      43      444        2    -0.83000   19.70253   14.35506   27.93567    0    0    0
      44      444        1     0.41500   19.28448   15.18404   28.16872    0    0    0
      45      444        1     0.41500   19.07265   13.68538   28.20219    0    0    0
      46      444        2    -0.83000    1.92273    0.01513   22.68738    0    0    0
      47      444        1     0.41500    1.10599   -0.28989   22.29227    0    0    0
      48      444        1     0.41500    2.00220    0.92529   22.40186    0    0    0
      49      444        2    -0.83000   25.97102   10.65513   13.99435    0    0    0
      50      444        1     0.41500   25.23763   10.04656   13.90463    0    0    0
      51      444        1     0.41500   26.05697   11.05651   13.12962    0    0    0
      52      444        2    -0.83000   25.34001   22.52462   24.53492    0    0    0
      53      444        1     0.41500   25.98818   22.23314   23.89370    0    0    0
      54      444        1     0.41500   24.51662   22.13848   24.23636    0    0    0
      55      444        2    -0.83000   15.54882   27.57575   33.44169    0    0    0
      56      444        1     0.41500   15.33747   27.34434   32.53724    0    0    0
      57      444        1     0.41500   16.28283   27.00542   33.67009    0    0    0
      58      444        2    -0.83000    8.72735    9.43627   10.13597    0    0    0
      59      444        1     0.41500    8.18243    9.56325   10.91262    0    0    0
      60      444        1     0.41500    9.60211    9.71308   10.40869    0    0    0
      61      444        2    -0.83000    7.20061    2.28936   16.18825    0    0    0
      62      444        1     0.41500    7.69214    2.73692   15.49953    0    0    0
      63      444        1     0.41500    7.81439    1.64518   16.54118    0    0    0
      64      444        2    -0.83000   19.86780    1.98624   10.67519    0    0    0
      65      444        1     0.41500   19.01980    2.17458   10.27314    0    0    0
      66      444        1     0.41500   19.83829    1.04956   10.87004    0    0    0
      67      444        2    -0.83000   20.06503    0.28523   13.91076    0    0    0
      68      444        1     0.41500   20.78192   -0.30306   13.67361    0    0    0
      69      444        1     0.41500   20.43379    0.85189   14.58837    0    0    0
      70      444        2    -0.83000   14.08899   19.43067   18.61457    0    0    0
      71      444        1     0.41500   13.19510   19.10418   18.51161    0    0    0
      72      444        1     0.41500   14.08502   19.87830   19.46065    0    0    0
      73      444        2    -0.83000   14.63704   30.82202   13.61990    0    0    0
      74      444        1     0.41500   15.14945   31.14708   14.36020    0    0    0
      75      444        1     0.41500   13.93670   30.30695   14.02049    0    0    0
      76      444        2    -0.83000   14.56098    9.07265   29.58376    0    0    0
      77      444        1     0.41500   14.34000    9.51566   30.40300    0    0    0
      78      444        1     0.41500   15.50063    8.90221   29.64896    0    0    0
      79      444        2    -0.83000   13.19393   22.05143   14.18962    0    0    0
      80      444        1     0.41500   12.88049   21.28967   13.70208    0    0    0
      81      444        1     0.41500   13.43059   21.70495   15.04996    0    0    0
      82      444        2    -0.83000    8.61798   30.10405   31.49923    0    0    0
      83      444        1     0.41500    8.62435   30.13202   30.54245    0    0    0
      84      444        1     0.41500    8.69438   31.01995   31.76663    0    0    0
      85      444        2    -0.83000   25.70193   15.72656   24.26534    0    0    0
      86      444        1     0.41500   26.46395   15.16972   24.10564    0    0    0
      87      444        1     0.41500   25.16314   15.62685   23.48047    0    0    0
      88      444        2    -0.83000   -1.20211    3.38877   13.20920    0    0    0
      89      444        1     0.41500   -0.72362    2.64089   13.56694    0    0    0
      90      444        1     0.41500   -0.53714    3.90164   12.74983    0    0    0
      91      444        2    -0.83000    8.43225    5.42718   31.16291    0    0    0
      92      444        1     0.41500    7.56033    5.77827   30.98199    0    0    0
      93      444        1     0.41500    8.32184    4.47727   31.12137    0    0    0
      94      444        2    -0.83000    5.17859   29.02322   22.98135    0    0    0
      95      444        1     0.41500    5.55350   28.21323   22.63556    0    0    0
      96      444        1     0.41500    4.91101   29.51458   22.20469    0    0    0
      97      444        2    -0.83000   22.11849   28.69453   15.18656    0    0    0
      98      444        1     0.41500   21.64268   27.89823   15.42270    0    0    0
      99      444        1     0.41500   22.71625   28.41966   14.49133    0    0    0
     100      444        2    -0.83000    6.91999   15.50985   18.07197    0    0    0
     101      444        1     0.41500    7.19976   16.08208   17.35745    0    0    0
     102      444        1     0.41500    7.73535   15.16922   18.43988    0    0    0
     103      444        2    -0.83000   10.16306   11.14867   22.34004    0    0    0
     104      444        1     0.41500   11.06418   10.82639   22.35931    0    0    0
     105      444        1     0.41500   10.02527   11.52811   23.20794    0    0    0
     106      444        2    -0.83000   25.98004   32.34553   14.45690    0    0    0
     107      444        1     0.41500   25.66903   32.93844   13.77282    0    0    0
     108      444        1     0.41500   25.19253   31.89213   14.75773    0    0    0
     109      444        2    -0.83000   15.56392   31.34082   27.92656    0    0    0
     110      444        1     0.41500   15.85904   31.88629   28.65568    0    0    0
     111      444        1     0.41500   14.78047   30.90148   28.25731    0    0    0
     112      444        2    -0.83000   13.68304   22.14717   30.08060    0    0    0
     113      444        1     0.41500   13.65461   22.59239   29.23372    0    0    0
     114      444        1     0.41500   14.43335   22.53537   30.53072    0    0    0
     115      444        2    -0.83000   19.93859   17.38763   35.46025    0    0    0
     116      444        1     0.41500   19.15850   17.72314   35.01849    0    0    0
     117      444        1     0.41500   20.13684   16.56787   35.00757    0    0    0
     118      444        2    -0.83000    0.94147   25.28640   27.65755    0    0    0
     119      444        1     0.41500    1.40445   26.02564   27.26330    0    0    0
     120      444        1     0.41500    0.05368   25.34328   27.30423    0    0    0
     121      444        2    -0.83000   26.56595   27.12274    8.03297    0    0    0
     122      444        1     0.41500   26.71756   26.91259    7.11149    0    0    0
     123      444        1     0.41500   26.65364   28.07476    8.07956    0    0    0
     124      444        2    -0.83000    1.36043   19.88843   11.16594    0    0    0
     125      444        1     0.41500    0.81629   20.67321   11.23136    0    0    0
     126      444        1     0.41500    0.87127   19.21692   11.64138    0    0    0
     127      444        2    -0.83000   11.75914   20.80876   28.73233    0    0    0
     128      444        1     0.41500   10.83560   20.74446   28.48914    0    0    0
     129      444        1     0.41500   12.03362   19.90277   28.87410    0    0    0
     130      444        2    -0.83000    3.99710   27.66153   31.53016    0    0    0
     131      444        1     0.41500    4.16050   28.59931   31.63055    0    0    0
     132      444        1     0.41500    3.05039   27.59487   31.40552    0    0    0
     133      444        2    -0.83000   19.37047    2.39894   24.03665    0    0    0
     134      444        1     0.41500   20.16697    2.87784   24.26572    0    0    0
     135      444        1     0.41500   18.75815    2.59896   24.74467    0    0    0
     136      444        2    -0.83000    7.36093   19.83251   20.35225    0    0    0
     137      444        1     0.41500    8.26337   19.52855   20.25520    0    0    0
     138      444        1     0.41500    7.24525   19.94341   21.29596    0    0    0
     139      444        2    -0.83000    5.71328   32.76852   11.40023    0    0    0
     140      444        1     0.41500    4.83167   32.90130   11.05181    0    0    0
     141      444        1     0.41500    5.89465   31.84120   11.24715    0    0    0
     142      444        2    -0.83000    5.83002    9.12538   20.46890    0    0    0
     143      444        1     0.41500    6.42867    9.87224   20.47782    0    0    0
     144      444        1     0.41500    4.99965    9.48706   20.15920    0    0    0
     145      444        2    -0.83000   19.81196    6.20168   17.25251    0    0    0
     146      444        1     0.41500   19.34231    5.93933   16.46077    0    0    0
     147      444        1     0.41500   20.17692    5.38631   17.59634    0    0    0
     148      444        2    -0.83000   10.98988   16.88769   18.22141    0    0    0
     149      444        1     0.41500   11.32124   16.40304   18.97744    0    0    0
     150      444        1     0.41500   11.71334   17.46094   17.96795    0    0    0
     151      444        2    -0.83000   10.68721   21.24328   11.48846    0    0    0
     152      444        1     0.41500   11.08652   21.88753   12.07308    0    0    0
     153      444        1     0.41500   11.42305   20.72198   11.16744    0    0    0
     154      444        2    -0.83000    1.66114   27.33278   10.58083    0    0    0
     155      444        1     0.41500    0.81011   27.04820   10.24769    0    0    0
     156      444        1     0.41500    1.64632   28.28593   10.49399    0    0    0
     157      444        2    -0.83000    9.49277   10.77916   28.04260    0    0    0
     158      444        1     0.41500    8.76192   10.16838   28.13781    0    0    0
     159      444        1     0.41500   10.23261   10.22964   27.78396    0    0    0
     160      444        2    -0.83000   20.36307   32.83338   32.31208    0    0    0
     161      444        1     0.41500   20.71060   32.32455   31.57958    0    0    0
     162      444        1     0.41500   19.41524   32.82974   32.17852    0    0    0
     163      444        2    -0.83000   23.59535    7.19483   12.41931    0    0    0
     164      444        1     0.41500   23.81507    8.03520   12.82150    0    0    0
     165      444        1     0.41500   22.77812    7.36014   11.94919    0    0    0
     166      444        2    -0.83000   19.85036   27.61534   28.31838    0    0    0
     167      444        1     0.41500   19.84860   27.13519   29.14643    0    0    0
     168      444        1     0.41500   20.74642   27.94054   28.23144    0    0    0
     169      444        2    -0.83000   26.15078    2.82391   34.12076    0    0    0
     170      444        1     0.41500   26.94814    2.58769   34.59474    0    0    0
     171      444        1     0.41500   25.91654    3.68754   34.46053    0    0    0
     172      444        2    -0.83000   13.76585    1.53169   17.07436    0    0    0
     173      444        1     0.41500   13.41170    0.95772   17.75360    0    0    0
     174      444        1     0.41500   14.47739    1.02687   16.68058    0    0    0
     175      444        2    -0.83000   13.15349    0.74031   25.53669    0    0    0
     176      444        1     0.41500   12.53805    0.02505   25.37586    0    0    0
     177      444        1     0.41500   14.01618    0.35188   25.39133    0    0    0
     178      444        2    -0.83000   22.19812   25.87894   26.57655    0    0    0
     179      444        1     0.41500   21.94215   24.97318   26.75068    0    0    0
     180      444        1     0.41500   21.37985   26.37320   26.62552    0    0    0
     181      444        2    -0.83000   10.23623    3.03566    8.27153    0    0    0
     182      444        1     0.41500   10.46730    3.77861    8.82909    0    0    0
     183      444        1     0.41500    9.36363    3.24690    7.93964    0    0    0
     184      444        2    -0.83000    1.08908   21.32014   20.97751    0    0    0
     185      444        1     0.41500    1.18835   20.93497   20.10686    0    0    0
     186      444        1     0.41500    1.49484   20.68565   21.56830    0    0    0
     187      444        2    -0.83000   19.71060   19.37668   26.43598    0    0    0
     188      444        1     0.41500   20.42897   19.99388   26.57491    0    0    0
     189      444        1     0.41500   20.14197   18.53318   26.29936    0    0    0
     190      444        2    -0.83000    8.56722   17.30842   11.46806    0    0    0
     191      444        1     0.41500    9.39764   17.71885   11.70926    0    0    0
     192      444        1     0.41500    8.81981   16.50459   11.01384    0    0    0
     193      444        2    -0.83000   18.10852   19.50699   29.30954    0    0    0
     194      444        1     0.41500   18.06063   20.21770   29.94894    0    0    0
     195      444        1     0.41500   17.40929   19.69886   28.68464    0    0    0
     196      444        2    -0.83000    2.14206   16.43532   29.86335    0    0    0
     197      444        1     0.41500    1.90135   16.63006   30.76909    0    0    0
     198      444        1     0.41500    1.95863   15.50138   29.76178    0    0    0
     199      444        2    -0.83000    2.41535   12.29863   32.15930    0    0    0
     200      444        1     0.41500    3.07609   11.67344   32.45726    0    0    0
     201      444        1     0.41500    2.70520   13.14020   32.51143    0    0    0
     202      444        2    -0.83000    7.50827   10.28731   25.00007    0    0    0
     203      444        1     0.41500    7.81017   11.18562   25.13473    0    0    0
     204      444        1     0.41500    8.01133    9.97529   24.24785    0    0    0
     205      444        2    -0.83000   19.79357   13.53564    9.65527    0    0    0
     206      444        1     0.41500   19.22971   13.29140    8.92135    0    0    0
     207      444        1     0.41500   20.04632   14.44067    9.47288    0    0    0
     208      444        2    -0.83000   18.47093   -1.06955   12.69923    0    0    0
     209      444        1     0.41500   18.53473   -1.31058   11.77505    0    0    0
     210      444        1     0.41500   17.53984   -1.15250   12.90515    0    0    0
     211      444        2    -0.83000   26.07016   19.92683   32.99167    0    0    0
     212      444        1     0.41500   26.01805   20.68658   33.57158    0    0    0
     213      444        1     0.41500   26.18750   20.29952   32.11783    0    0    0
     214      444        2    -0.83000    3.94765   20.39922   10.71549    0    0    0
     215      444        1     0.41500    3.65894   20.31154    9.80707    0    0    0
     216      444        1     0.41500    3.17509   20.17747   11.23528    0    0    0
     217      444        2    -0.83000   16.14947    2.51012   30.33352    0    0    0
     218      444        1     0.41500   15.74521    3.37587   30.27567    0    0    0
     219      444        1     0.41500   16.93743    2.64787   30.85922    0    0    0
     220      444        2    -0.83000   17.42921   25.25001   15.90485    0    0    0
     221      444        1     0.41500   17.94048   25.59286   16.63785    0    0    0
     222      444        1     0.41500   17.17283   24.37033   16.18178    0    0    0
     223      444        2    -0.83000   20.72877    4.12875   20.22985    0    0    0
     224      444        1     0.41500   21.61645    3.77858   20.30508    0    0    0
     225      444        1     0.41500   20.83957    5.07782   20.28661    0    0    0
     226      444        2    -0.83000   26.57960    0.70281   20.84547    0    0    0
     227      444        1     0.41500   26.57171    0.96879   19.92597    0    0    0
     228      444        1     0.41500   26.68608    1.52084   21.33100    0    0    0
     229      444        2    -0.83000    5.74121   27.29845    8.54344    0    0    0
     230      444        1     0.41500    4.99367   27.88938    8.45275    0    0    0
     231      444        1     0.41500    6.45421   27.85871    8.84999    0    0    0
     232      444        2    -0.83000   15.68084   11.99091   11.36135    0    0    0
     233      444        1     0.41500   16.10691   11.45177   12.02770    0    0    0
     234      444        1     0.41500   14.90478   11.49093   11.10831    0    0    0
     235      444        2    -0.83000    4.97791    1.18128    9.37647    0    0    0
     236      444        1     0.41500    4.18089    1.19247    8.84647    0    0    0
     237      444        1     0.41500    5.50343    1.90473    9.03487    0    0    0
     238      444        2    -0.83000   14.41326   30.06907   16.35208    0    0    0
     239      444        1     0.41500   15.10865   30.61526   16.71862    0    0    0
     240      444        1     0.41500   13.81191   29.92387   17.08253    0    0    0
     241      444        2    -0.83000   27.33849    4.97334   11.94225    0    0    0
     242      444        1     0.41500   26.80593    4.55617   12.61944    0    0    0
     243      444        1     0.41500   27.13685    5.90590   12.01894    0    0    0
     244      444        2    -0.83000    5.84246   28.46087   29.76405    0    0    0
     245      444        1     0.41500    6.45954   27.72916   29.77151    0    0    0
     246      444        1     0.41500    4.99949   28.06170   29.54888    0    0    0
     247      444        2    -0.83000    8.17022   22.57112   31.79737    0    0    0
     248      444        1     0.41500    8.15085   21.77966   32.33538    0    0    0
     249      444        1     0.41500    7.53093   22.40591   31.10435    0    0    0
     250      444        2    -0.83000   20.40476   19.24024   20.13295    0    0    0
     251      444        1     0.41500   19.79822   18.50427   20.21475    0    0    0
     252      444        1     0.41500   21.02458   18.96639   19.45688    0    0    0
     253      444        2    -0.83000   14.20587   13.90333    9.85506    0    0    0
     254      444        1     0.41500   15.08281   14.07533   10.19802    0    0    0
     255      444        1     0.41500   13.65974   13.79878   10.63421    0    0    0
     256      444        2    -0.83000   23.09433   30.07755   19.89364    0    0    0
     257      444        1     0.41500   23.35277   30.06704   20.81524    0    0    0
     258      444        1     0.41500   23.84975   30.44741   19.43676    0    0    0
     259      444        2    -0.83000   11.17357   23.98348   26.03952    0    0    0
     260      444        1     0.41500   11.07678   23.03127   26.02652    0    0    0
     261      444        1     0.41500   10.75380   24.27843   25.23140    0    0    0
     262      444        2    -0.83000    4.58406    1.67576   24.74819    0    0    0
     263      444        1     0.41500    4.76535    2.59379   24.54670    0    0    0
     264      444        1     0.41500    4.03508    1.37501   24.02403    0    0    0
     265      444        2    -0.83000   19.33529   16.35464   30.17396    0    0    0
     266      444        1     0.41500   19.23621   16.08810   31.08795    0    0    0
     267      444        1     0.41500   19.68768   17.24343   30.22000    0    0    0
     268      444        2    -0.83000   10.91482   27.05307   16.05707    0    0    0
     269      444        1     0.41500   11.21806   26.19890   15.74935    0    0    0
     270      444        1     0.41500   10.67977   27.52613   15.25883    0    0    0
     271      444        2    -0.83000   29.14817   14.92341   11.52521    0    0    0
     272      444        1     0.41500   29.17314   15.77252   11.96641    0    0    0
     273      444        1     0.41500   28.72420   15.10156   10.68572    0    0    0
     274      444        2    -0.83000   12.63774   10.50088   20.54372    0    0    0
     275      444        1     0.41500   13.06645   10.40980   21.39471    0    0    0
     276      444        1     0.41500   13.25637   11.00614   20.01622    0    0    0
     277      444        2    -0.83000   24.98702    7.15522   14.65770    0    0    0
     278      444        1     0.41500   25.69928    7.73407   14.92950    0    0    0
     279      444        1     0.41500   24.82469    7.38744   13.74340    0    0    0
     280      444        2    -0.83000   24.20253   16.60891   34.95246    0    0    0
     281      444        1     0.41500   24.26451   16.25302   35.83890    0    0    0
     282      444        1     0.41500   25.07791   16.94990   34.76901    0    0    0
     283      444        2    -0.83000    6.44687   26.08833   23.40956    0    0    0
     284      444        1     0.41500    5.92737   26.08658   24.21352    0    0    0
     285      444        1     0.41500    6.58041   25.16213   23.20816    0    0    0
     286      444        2    -0.83000   -0.52526    0.41800   35.65458    0    0    0
     287      444        1     0.41500   -0.68320    1.26222   35.23197    0    0    0
     288      444        1     0.41500   -1.26822   -0.12497   35.39115    0    0    0
     289      444        2    -0.83000    3.29425   24.98829   27.70122    0    0    0
     290      444        1     0.41500    3.43987   24.26053   28.30573    0    0    0
     291      444        1     0.41500    3.88408   25.67686   28.00811    0    0    0
     292      444        2    -0.83000   17.83490    9.74041   17.72048    0    0    0
     293      444        1     0.41500   17.30284    9.01297   18.04295    0    0    0
     294      444        1     0.41500   18.39857    9.97124   18.45890    0    0    0
     295      444        2    -0.83000   13.87748    2.99245   23.90574    0    0    0
     296      444        1     0.41500   14.61670    2.65472   24.41143    0    0    0
     297      444        1     0.41500   13.77057    2.36639   23.18962    0    0    0
     298      444        2    -0.83000    1.21691   13.04513   11.05925    0    0    0
     299      444        1     0.41500    1.89207   13.70967   10.92215    0    0    0
     300      444        1     0.41500    0.42311   13.54516   11.24918    0    0    0
     301      444        2    -0.83000   17.52183   21.80959   30.80571    0    0    0
     302      444        1     0.41500   17.15758   22.51721   30.27389    0    0    0
     303      444        1     0.41500   16.75723   21.37746   31.18636    0    0    0
     304      444        2    -0.83000   12.24577   15.59490   16.42287    0    0    0
     305      444        1     0.41500   11.42128   15.41808   16.87590    0    0    0
     306      444        1     0.41500   12.89327   15.06455   16.88729    0    0    0
     307      444        2    -0.83000   -0.62096   25.26072   33.44922    0    0    0
     308      444        1     0.41500   -0.35911   26.13774   33.72943    0    0    0
     309      444        1     0.41500   -0.08112   24.66986   33.97430    0    0    0
     310      444        2    -0.83000    0.39079    9.95923   27.98926    0    0    0
     311      444        1     0.41500    0.50047   10.86220   27.69121    0    0    0
     312      444        1     0.41500   -0.53518    9.76803   27.84008    0    0    0
     313      444        2    -0.83000   -0.28149    8.31822   23.51316    0    0    0
     314      444        1     0.41500   -0.23791    8.43402   24.46233    0    0    0
     315      444        1     0.41500   -1.13648    8.67148   23.26732    0    0    0
     316      444        2    -0.83000   24.99526    3.36771    7.28965    0    0    0
     317      444        1     0.41500   25.05712    2.71328    6.59382    0    0    0
     318      444        1     0.41500   25.29139    2.91009    8.07649    0    0    0
     319      444        2    -0.83000   16.45271    3.42121   20.17495    0    0    0
     320      444        1     0.41500   16.60772    2.66161   20.73641    0    0    0
     321      444        1     0.41500   15.62064    3.23297   19.74084    0    0    0
     322      444        2    -0.83000   -0.59337    4.91679   11.26944    0    0    0
     323      444        1     0.41500   -1.34366    4.61870   11.78367    0    0    0
     324      444        1     0.41500   -0.48514    4.24816   10.59307    0    0    0