LAMMPS data file via write_data, version 11 Aug 2017, timestep = 1000000

3561 atoms
11 atom types
2024 bonds
5 bond types
1018 angles
5 angle types
12 dihedrals
4 dihedral types
9 impropers
1 improper types

0.0000000000000000e+00 3.2704500000000003e+01 xlo xhi
0.0000000000000000e+00 3.2704500000000003e+01 ylo yhi
0.0000000000000000e+00 8.0000000000000000e+01 zlo zhi

Masses

1 1.0079
2 15.9994
3 39.0983
4 63.546
5 15.9994
6 12.011
7 12.011
8 15.9994
9 15.9994
10 15.9994
11 1.0079

Bond Coeffs # harmonic

1 450 0.9572
2 570 1.229
3 450 1.364
4 570 1.229
5 553 0.945

Angle Coeffs # harmonic

1 100 123.32
2 85 124
3 55 104.52
4 35 113
5 100 123.32

Dihedral Coeffs # charmm

1 0.922 1 180 0
2 3.741 2 0 0
3 0.922 1 0 0
4 3.741 2 180 0

Improper Coeffs # umbrella

1 21 0

Atoms # full

3049 444 4 -7.4069999999999997e-02 1.6558999999999999e+00 6.6205000000000003e-01 3.5891000000000002e+00 0 0 0
3050 444 4 0.0000000000000000e+00 3.4729999999999999e+00 6.6205000000000003e-01 1.8169999999999999e+00 0 0 0
3051 444 4 0.0000000000000000e+00 1.6560500000000000e+00 2.4790000000000001e+00 1.8169999999999999e+00 0 0 0
3054 444 4 0.0000000000000000e+00 5.2898399999999999e+00 6.6205000000000003e-01 0.0000000000000000e+00 0 0 0
3055 444 4 -7.4069999999999997e-02 5.2854700000000001e+00 6.6132999999999997e-01 3.5952600000000001e+00 0 0 0
3057 444 4 0.0000000000000000e+00 5.2898399999999999e+00 2.4790000000000001e+00 1.8169999999999999e+00 0 0 0
3060 444 4 0.0000000000000000e+00 1.6560500000000000e+00 6.6205000000000003e-01 0.0000000000000000e+00 0 0 0
3064 444 4 0.0000000000000000e+00 3.4729999999999999e+00 6.1128000000000000e+00 0.0000000000000000e+00 0 0 0
3065 444 4 -7.4069999999999997e-02 3.4502799999999998e+00 6.1173200000000003e+00 3.5704799999999999e+00 0 0 0
3066 444 4 0.0000000000000000e+00 1.6560500000000000e+00 4.2959500000000004e+00 0.0000000000000000e+00 0 0 0
3067 444 4 -7.4069999999999997e-02 1.6550100000000001e+00 4.2936300000000003e+00 3.5961400000000001e+00 0 0 0
3068 444 4 0.0000000000000000e+00 3.4729999999999999e+00 4.2959500000000004e+00 1.8169999999999999e+00 0 0 0
3069 444 4 0.0000000000000000e+00 1.6560500000000000e+00 6.1128000000000000e+00 1.8169999999999999e+00 0 0 0
3074 444 4 -7.4069999999999997e-02 3.4639400000000000e+00 2.4712000000000001e+00 3.5865499999999999e+00 0 0 0
3075 444 4 0.0000000000000000e+00 3.4729999999999999e+00 2.4790000000000001e+00 0.0000000000000000e+00 0 0 0
3076 444 4 0.0000000000000000e+00 5.2898399999999999e+00 4.2959500000000004e+00 0.0000000000000000e+00 0 0 0
3077 444 4 0.0000000000000000e+00 5.2898399999999999e+00 6.1128000000000000e+00 1.8169999999999999e+00 0 0 0
3086 444 4 0.0000000000000000e+00 1.6560500000000000e+00 7.9297500000000003e+00 0.0000000000000000e+00 0 0 0
3087 444 4 -7.4069999999999997e-02 1.6555800000000001e+00 7.9339800000000000e+00 3.5963300000000000e+00 0 0 0
3088 444 4 0.0000000000000000e+00 3.4729999999999999e+00 7.9297500000000003e+00 1.8169999999999999e+00 0 0 0
3092 444 4 0.0000000000000000e+00 5.2898399999999999e+00 7.9297500000000003e+00 0.0000000000000000e+00 0 0 0
3093 444 4 -7.4069999999999997e-02 5.2824700000000000e+00 7.9353800000000003e+00 3.5740200000000000e+00 0 0 0
3101 444 4 -7.4069999999999997e-02 5.2730899999999998e+00 4.2789900000000003e+00 3.5865600000000000e+00 0 0 0
387 444 1 4.1499999999999998e-01 2.7105404241009721e+00 5.4355604902253152e+00 6.8955403827910144e+00 4 1 0
1987 444 2 -8.2999999999999996e-01 2.0231695303372059e+00 7.2407287462603858e+00 6.8866767921433523e+00 -2 2 0
2493 444 1 4.1499999999999998e-01 5.7856950077658553e-01 3.8622124012604306e+00 7.6055414818892348e+00 2 1 0
385 444 2 -8.2999999999999996e-01 3.2290029517499583e+00 4.6564148363559417e+00 7.0964428874307357e+00 4 1 0
386 444 1 4.1499999999999998e-01 3.8596040164816090e+00 4.5961706077644253e+00 6.3788460415590409e+00 4 1 0
2492 444 1 4.1499999999999998e-01 2.0876417359028130e+00 3.7662260516795008e+00 7.6789091393596580e+00 2 1 0
1988 444 1 4.1499999999999998e-01 1.1906838284126025e+00 7.5901986920659841e+00 6.5687614853648713e+00 -2 2 0
192 444 1 4.1499999999999998e-01 2.3007123231139306e+00 1.6191183006812315e+00 7.1781244282267407e+00 1 0 0
806 444 1 4.1499999999999998e-01 5.1475805773456997e+00 7.4077665055014323e+00 7.5374545728033349e+00 2 1 0
190 444 2 -8.2999999999999996e-01 2.4240880869536192e+00 6.8166153504074534e-01 7.0291770421337203e+00 1 0 0
191 444 1 4.1499999999999998e-01 3.2384099142239404e+00 6.2318417821352690e-01 6.5294844281702842e+00 1 0 0
1989 444 1 4.1499999999999998e-01 2.6835135268218444e+00 7.8401346596293218e+00 6.5389841110873634e+00 -2 2 0
2491 444 2 -8.2999999999999996e-01 1.2871635261823333e+00 3.4243749058342257e+00 8.0771607050434326e+00 2 1 0
859 444 2 -8.2999999999999996e-01 8.8125992155366928e-02 1.5102848211724968e+00 1.1249489878846683e+01 0 3 0
721 444 2 -8.2999999999999996e-01 1.2479416565494077e+00 7.0301920125641351e+00 9.4247301683372715e+00 1 -1 0
378 444 1 4.1499999999999998e-01 1.5602120307180842e+00 3.6057425638251841e+00 9.7289021350863791e+00 -1 -1 0
244 444 2 -8.2999999999999996e-01 2.6075304359036280e+00 1.6136800568407854e+00 1.2866426712821335e+01 4 2 0
1631 444 1 4.1499999999999998e-01 3.8762360618621843e+00 6.7623379157568753e+00 9.3388047345519869e+00 3 0 0
1630 444 2 -8.2999999999999996e-01 3.7305762608911430e+00 5.8361681398258005e+00 9.5317440596916505e+00 3 0 0
246 444 1 4.1499999999999998e-01 1.8258032776728839e+00 2.1493779098948251e+00 1.3001195104246895e+01 4 2 0
431 444 1 4.1499999999999998e-01 1.9767032816682872e-01 5.6293166175768627e+00 1.2359555350434769e+01 1 0 0
704 444 1 4.1499999999999998e-01 2.9883544124580541e+00 7.5489553703369268e+00 1.3068783326370646e+01 1 -2 0
703 444 2 -8.2999999999999996e-01 3.8812932888345015e+00 7.6764263716522843e+00 1.3389164813728124e+01 1 -2 0
1632 444 1 4.1499999999999998e-01 3.8043052556751862e+00 5.3997406105692427e+00 8.6830228351030350e+00 3 0 0
193 444 2 -8.2999999999999996e-01 4.2808721049446232e+00 2.0212360885074574e+00 1.4887043834152088e+01 -4 2 0
194 444 1 4.1499999999999998e-01 3.6334887532509468e+00 1.9345283459705462e+00 1.4187323593191664e+01 -4 2 0
377 444 1 4.1499999999999998e-01 2.5100246359660301e+00 4.2055878344217890e+00 1.0743760186744678e+01 -1 -1 0
376 444 2 -8.2999999999999996e-01 1.7982335379329224e+00 3.5717267487202076e+00 1.0655412015638598e+01 -1 -1 0
245 444 1 4.1499999999999998e-01 2.2729812418771278e+00 7.7954561834075953e-01 1.2536989854271654e+01 4 2 0
1924 444 2 -8.2999999999999996e-01 4.2702279648027384e+00 6.4376393334391349e+00 1.5768312465012993e+01 2 2 0
1926 444 1 4.1499999999999998e-01 4.0684146209539840e+00 6.7609184924951062e+00 1.4890249201351256e+01 2 2 0
1925 444 1 4.1499999999999998e-01 4.6518335240616810e+00 5.5718302110688942e+00 1.5623452858043580e+01 2 2 0
722 444 1 4.1499999999999998e-01 1.9569708174784044e+00 6.5454876371408215e+00 9.8473069828311459e+00 1 -1 0
432 444 1 4.1499999999999998e-01 5.8890969555042394e-01 4.3416658590807726e+00 1.1666169994733481e+01 1 0 0
195 444 1 4.1499999999999998e-01 5.0344157857848337e+00 1.5167122738448531e+00 1.4580678871276518e+01 -4 2 0
860 444 1 4.1499999999999998e-01 8.2474982391474072e-01 1.9826784789385814e+00 1.0861595753293761e+01 0 3 0
723 444 1 4.1499999999999998e-01 1.5071340883897659e+00 7.0811673561356328e+00 8.5047015486690611e+00 1 -1 0
1410 444 1 4.1499999999999998e-01 7.3561273456203280e-01 7.7175901137451133e+00 1.2338103668021590e+01 1 -5 0
805 444 2 -8.2999999999999996e-01 4.6675167653496565e+00 7.9070815758337121e+00 8.1981020010586807e+00 2 1 0
1409 444 1 4.1499999999999998e-01 1.2611145148745353e+00 8.1267618509739528e+00 1.3697633572914622e+01 1 -5 0
1515 444 1 4.1499999999999998e-01 5.1005883848437863e+00 3.5244342435114584e+00 1.5560093998223589e+01 -2 -3 0
1408 444 2 -8.2999999999999996e-01 1.2673507176762888e+00 7.4042851561062548e+00 1.3069763823924594e+01 1 -5 0
2042 444 1 4.1499999999999998e-01 9.5853306022352869e-02 4.4505542471454076e+00 1.4873951361725867e+01 -1 0 0
837 444 1 4.1499999999999998e-01 4.3953640341642899e+00 2.4612389208623697e+00 1.0638280811735667e+01 0 -2 0
2038 444 2 -8.2999999999999996e-01 4.1919271831940791e-01 4.3001583084440060e+00 1.5762244403834082e+01 -1 0 0
835 444 2 -8.2999999999999996e-01 5.2375055298821502e+00 2.8390156557411195e+00 1.0384677308385335e+01 0 -2 0
2112 444 1 4.1499999999999998e-01 4.4375476845958761e-01 1.4477399406747413e+00 1.6590181105675804e+01 -3 1 0
2111 444 1 4.1499999999999998e-01 1.3932077463569714e-01 2.9235652191094643e+00 1.6735628288129540e+01 -3 1 0
1627 444 2 -8.2999999999999996e-01 5.3684812665096713e+00 5.6651302199877573e+00 1.8583753041814589e+01 3 1 0
1322 444 1 4.1499999999999998e-01 2.8018081655845273e+00 5.6020398143742582e+00 1.7260991389930254e+01 3 2 0
2397 444 1 4.1499999999999998e-01 3.3906039138800201e+00 1.7004427103945319e+00 1.6753399134393892e+01 4 1 0
2396 444 1 4.1499999999999998e-01 3.0709873283010132e+00 2.0473126784503486e+00 1.8191947636490486e+01 4 1 0
1321 444 2 -8.2999999999999996e-01 2.1573451526677756e+00 5.0676175377997135e+00 1.7724987192650808e+01 3 2 0
2754 444 1 4.1499999999999998e-01 1.6220457321247930e-01 3.2489585912898087e+00 1.9987402746475095e+01 6 0 0
2395 444 2 -8.2999999999999996e-01 2.9423771570476123e+00 1.3672224687087449e+00 1.7530759820339700e+01 4 1 0
1629 444 1 4.1499999999999998e-01 4.6643913199349170e+00 6.3132354861962510e+00 1.8562564725381570e+01 3 1 0
1201 444 2 -8.2999999999999996e-01 4.2025652968647300e+00 3.2117188012379727e+00 1.9242376392029094e+01 2 -2 0
1202 444 1 4.1499999999999998e-01 4.0827838191735006e+00 4.0760404496934752e+00 1.9635864045273241e+01 2 -2 0
1323 444 1 4.1499999999999998e-01 1.4804905915673348e+00 4.8875433471567016e+00 1.7072551014830811e+01 3 2 0
587 444 1 4.1499999999999998e-01 1.7833894191226305e+00 4.7609705361838390e+00 1.9362300362166742e+01 8 -1 0
1513 444 2 -8.2999999999999996e-01 5.4309496538488045e+00 4.0782062617399921e+00 1.6267504651370274e+01 -2 -3 0
1203 444 1 4.1499999999999998e-01 5.0589685921036942e+00 3.2581257217582560e+00 1.8817344651500747e+01 2 -2 0
1628 444 1 4.1499999999999998e-01 5.2025985274858835e+00 5.1056707399259897e+00 1.7824990421964376e+01 3 1 0
2110 444 2 -8.2999999999999996e-01 2.3508720495186708e-03 2.0769386731284301e+00 1.7160710153414993e+01 -3 1 0
3084 444 4 0.0000000000000000e+00 3.4729999999999999e+00 9.7467000000000006e+00 0.0000000000000000e+00 0 0 0
3085 444 4 -7.4069999999999997e-02 3.4707499999999998e+00 9.7492599999999996e+00 3.5906300000000000e+00 0 0 0
3089 444 4 0.0000000000000000e+00 1.6560500000000000e+00 9.7467000000000006e+00 1.8169999999999999e+00 0 0 0
3095 444 4 0.0000000000000000e+00 5.2898399999999999e+00 9.7467000000000006e+00 1.8169999999999999e+00 0 0 0
3106 444 4 -7.4069999999999997e-02 1.6558999999999999e+00 1.1563499999999999e+01 3.5891000000000002e+00 0 0 0
3107 444 4 0.0000000000000000e+00 3.4729999999999999e+00 1.1563499999999999e+01 1.8169999999999999e+00 0 0 0
3108 444 4 0.0000000000000000e+00 1.6560500000000000e+00 1.3380500000000000e+01 1.8169999999999999e+00 0 0 0
3111 444 4 0.0000000000000000e+00 5.2898399999999999e+00 1.1563499999999999e+01 0.0000000000000000e+00 0 0 0
3112 444 4 -7.4069999999999997e-02 5.2854700000000001e+00 1.1562799999999999e+01 3.5952600000000001e+00 0 0 0
3114 444 4 0.0000000000000000e+00 5.2898399999999999e+00 1.3380500000000000e+01 1.8169999999999999e+00 0 0 0
3117 444 4 0.0000000000000000e+00 1.6560500000000000e+00 1.1563499999999999e+01 0.0000000000000000e+00 0 0 0
3123 444 4 0.0000000000000000e+00 1.6560500000000000e+00 1.5197400000000000e+01 0.0000000000000000e+00 0 0 0
3124 444 4 -7.4069999999999997e-02 1.6550100000000001e+00 1.5195100000000000e+01 3.5961400000000001e+00 0 0 0
3125 444 4 0.0000000000000000e+00 3.4729999999999999e+00 1.5197400000000000e+01 1.8169999999999999e+00 0 0 0
3131 444 4 -7.4069999999999997e-02 3.4639400000000000e+00 1.3372700000000000e+01 3.5865499999999999e+00 0 0 0
3132 444 4 0.0000000000000000e+00 3.4729999999999999e+00 1.3380500000000000e+01 0.0000000000000000e+00 0 0 0
3133 444 4 0.0000000000000000e+00 5.2898399999999999e+00 1.5197400000000000e+01 0.0000000000000000e+00 0 0 0
3158 444 4 -7.4069999999999997e-02 5.2730899999999998e+00 1.5180500000000000e+01 3.5865600000000000e+00 0 0 0
259 444 2 -8.2999999999999996e-01 6.1612893167674165e-01 1.4055183046432557e+01 6.1904707075148488e+00 -2 -1 0
2143 444 2 -8.2999999999999996e-01 2.9319626066757309e+00 1.2755313850978951e+01 6.8778984472172304e+00 0 -4 0
544 444 2 -8.2999999999999996e-01 3.4183586517801348e+00 9.5671860005822342e+00 6.4844974642136419e+00 -1 -1 0
545 444 1 4.1499999999999998e-01 2.5737443077138078e+00 9.9714146326527846e+00 6.6831394185125426e+00 -1 -1 0
546 444 1 4.1499999999999998e-01 4.0263671703491175e+00 1.0303248374483660e+01 6.4154285194069995e+00 -1 -1 0
2145 444 1 4.1499999999999998e-01 2.4031114211039277e+00 1.1971515708783963e+01 6.7288695209934319e+00 0 -4 0
261 444 1 4.1499999999999998e-01 1.3946392339818598e+00 1.3498268530945595e+01 6.1900658250676468e+00 -2 -1 0
2608 444 2 -8.2999999999999996e-01 1.0468481165923575e+00 1.0765018968678309e+01 6.8490680584436099e+00 -2 0 0
2144 444 1 4.1499999999999998e-01 3.8298150769330168e+00 1.2476907722803302e+01 6.6973902163400254e+00 0 -4 0
2610 444 1 4.1499999999999998e-01 6.6833899137128483e-01 9.9753900665615713e+00 6.4624818214285504e+00 -2 0 0
2609 444 1 4.1499999999999998e-01 3.2982111866038699e-01 1.1399135006120858e+01 6.8501043047687347e+00 -2 0 0
807 444 1 4.1499999999999998e-01 4.1732773789328812e+00 8.5555043230187398e+00 7.6965970392093386e+00 2 1 0
1781 444 1 4.1499999999999998e-01 4.3047659925913857e+00 1.5568233793224167e+01 6.7828191995200200e+00 2 3 0
1782 444 1 4.1499999999999998e-01 3.0093132023322156e+00 1.4808407790702338e+01 6.5921315779781908e+00 2 3 0
416 444 1 4.1499999999999998e-01 5.1403980165247312e+00 1.3099163064850341e+01 7.8720393192557383e+00 4 3 0
1780 444 2 -8.2999999999999996e-01 3.3704518576531606e+00 1.5601461030008920e+01 6.9882092745434008e+00 2 3 0
338 444 1 4.1499999999999998e-01 3.2570863941671555e+00 1.0721309418031964e+01 1.0536712918458658e+01 -1 -1 0
1363 444 2 -8.2999999999999996e-01 4.6450655297467058e+00 1.3642642388919533e+01 1.1875270050405998e+01 1 4 0
1845 444 1 4.1499999999999998e-01 4.7237272456330555e+00 9.4890294638249326e+00 1.5298927562174281e+01 0 -4 0
337 444 2 -8.2999999999999996e-01 3.7174669157326536e+00 1.1059352615050338e+01 1.1304833214356838e+01 -1 -1 0
1573 444 2 -8.2999999999999996e-01 2.6687930451296999e+00 1.4514973271399333e+01 1.3329940498998043e+01 3 2 0
1365 444 1 4.1499999999999998e-01 4.9798567396872002e+00 1.4343856092896690e+01 1.1316301308093896e+01 1 4 0
339 444 1 4.1499999999999998e-01 3.4863249641102061e+00 1.1987773038330966e+01 1.1333842106223825e+01 -1 -1 0
1575 444 1 4.1499999999999998e-01 3.4573736123940733e+00 1.4360411996139954e+01 1.2809860351339493e+01 3 2 0
110 444 1 4.1499999999999998e-01 8.0883150269527504e-01 1.1735176750958274e+01 1.1558066392254197e+01 3 3 0
959 444 1 4.1499999999999998e-01 4.4724888805533087e+00 1.0436710358526263e+01 1.2838440483552860e+01 3 1 0
2789 444 1 4.1499999999999998e-01 1.0185026292707382e+00 1.4281633740114827e+01 1.2166729670308490e+01 2 -1 0
1574 444 1 4.1499999999999998e-01 2.8549229960205560e+00 1.5318949574964904e+01 1.3814924600601181e+01 3 2 0
1341 444 1 4.1499999999999998e-01 2.0992644837902654e+00 1.3050909595406226e+01 1.4160942083906477e+01 5 0 0
2790 444 1 4.1499999999999998e-01 1.0249316643574438e+00 1.4472585738886080e+01 1.0664933683066318e+01 2 -1 0
1730 444 1 4.1499999999999998e-01 2.2053855658659116e+00 1.3404875677446221e+01 8.8160281496799389e+00 1 -1 0
1139 444 1 4.1499999999999998e-01 1.6656661055666337e+00 9.2048673520214219e+00 1.5778053547262374e+01 -2 5 0
866 444 1 4.1499999999999998e-01 8.5003921974844099e-01 1.0072687963692580e+01 9.0666048518143452e+00 -1 -3 0
867 444 1 4.1499999999999998e-01 1.0209719006904632e+00 9.7280624049904532e+00 1.0530814700182173e+01 -1 -3 0
865 444 2 -8.2999999999999996e-01 1.2280489502292005e+00 1.0401047416665421e+01 9.8823994484697195e+00 -1 -3 0
1729 444 2 -8.2999999999999996e-01 1.6755204208995953e+00 1.3143878165295444e+01 9.5692584228129913e+00 1 -1 0
1339 444 2 -8.2999999999999996e-01 1.6344884443662699e+00 1.2241619071261093e+01 1.4373695335642926e+01 5 0 0
1138 444 2 -8.2999999999999996e-01 1.6499499650587590e+00 9.2038202231152511e+00 1.4820983022180199e+01 -2 5 0
2788 444 2 -8.2999999999999996e-01 6.0767752212854043e-01 1.4788540057458770e+01 1.1466372213210423e+01 2 -1 0
1340 444 1 4.1499999999999998e-01 9.4795495063211765e-01 1.2177509623423477e+01 1.3709772457939279e+01 5 0 0
1140 444 1 4.1499999999999998e-01 1.9083957711478752e+00 1.0092244539719097e+01 1.4575747680167058e+01 -2 5 0
109 444 2 -8.2999999999999996e-01 1.1305974635765355e-01 1.1825972007604815e+01 1.2209134771753300e+01 3 3 0
2516 444 1 4.1499999999999998e-01 2.8815719080388726e+00 1.5494339662352465e+01 1.5818040107935515e+01 -2 -2 0
705 444 1 4.1499999999999998e-01 3.9954138982760048e+00 8.6265700535687220e+00 1.3410067011098077e+01 1 -2 0
958 444 2 -8.2999999999999996e-01 4.7590301104871671e+00 1.0063171375865409e+01 1.3671863910622021e+01 3 1 0
415 444 2 -8.2999999999999996e-01 5.0700248131202201e+00 1.2964156162009273e+01 8.8170539774297225e+00 4 3 0
108 444 1 4.1499999999999998e-01 4.0657385640129631e+00 1.5934130419045708e+01 1.0262529630490556e+01 2 -1 0
417 444 1 4.1499999999999998e-01 5.4094545767276632e+00 1.2080514937738389e+01 8.9591730852756566e+00 4 3 0
1844 444 1 4.1499999999999998e-01 4.2729400040517849e+00 8.2012757110101546e+00 1.5954958301673894e+01 0 -4 0
1731 444 1 4.1499999999999998e-01 1.4049240634887017e+00 1.2246925264219991e+01 9.3730807151806612e+00 1 -1 0
1364 444 1 4.1499999999999998e-01 5.4286688324390528e+00 1.3192841944218999e+01 1.2191303777503204e+01 1 4 0
107 444 1 4.1499999999999998e-01 2.6979562314824115e+00 1.6333452835644835e+01 1.0774006242406982e+01 2 -1 0
2117 444 1 4.1499999999999998e-01 1.5465419132733931e+00 1.2221082786010243e+01 1.5993664464756096e+01 6 0 0
875 444 1 4.1499999999999998e-01 4.3896075208698082e-01 1.6265454628242168e+01 1.4443781127135948e+01 0 -1 0
396 444 1 4.1499999999999998e-01 8.8086012240164033e-02 8.6600336431607889e+00 1.8165241645851438e+01 -1 -1 0
1570 444 2 -8.2999999999999996e-01 1.3108407531057016e+00 9.5404197831740696e+00 1.7851448839971766e+01 1 -1 0
1571 444 1 4.1499999999999998e-01 2.2402396664162945e+00 9.3239456755964696e+00 1.7926207453630532e+01 1 -1 0
1843 444 2 -8.2999999999999996e-01 4.5199288544014644e+00 9.1049011344619331e+00 1.6151654659363967e+01 0 -4 0
1572 444 1 4.1499999999999998e-01 1.2990449488085860e+00 1.0463240431645108e+01 1.7597489456200552e+01 1 -1 0
411 444 1 4.1499999999999998e-01 5.2533133485809076e+00 1.5226115084098357e+01 1.8147210548996910e+01 -1 1 0
364 444 2 -8.2999999999999996e-01 3.6530558171675470e-01 1.1946857841706633e+01 1.9663050011054619e+01 0 2 0
2515 444 2 -8.2999999999999996e-01 2.4644922902306341e+00 1.4970439886035809e+01 1.6502003686023087e+01 -2 -2 0
2517 444 1 4.1499999999999998e-01 1.8813337758144637e+00 1.5582434223478286e+01 1.6951026832942460e+01 -2 -2 0
366 444 1 4.1499999999999998e-01 1.2256380579685964e+00 1.1581617393498613e+01 1.9869592069571997e+01 0 2 0
365 444 1 4.1499999999999998e-01 5.2811165457145803e-01 1.2548464179039900e+01 1.8936554313729296e+01 0 2 0
410 444 1 4.1499999999999998e-01 3.7630410846344393e+00 1.5226564712529054e+01 1.7880782593997662e+01 -1 1 0
2030 444 1 4.1499999999999998e-01 4.7698930691940555e+00 9.3839195214030120e+00 1.9535963323516409e+01 2 2 0
2116 444 2 -8.2999999999999996e-01 1.5098015704185426e+00 1.2399729826986727e+01 1.6933327843708081e+01 6 0 0
2029 444 2 -8.2999999999999996e-01 4.0405463182217813e+00 9.5441422402425662e+00 1.8937119365108757e+01 2 2 0
409 444 2 -8.2999999999999996e-01 4.4439279239859415e+00 1.5683964132724476e+01 1.8374150651586781e+01 -1 1 0
2118 444 1 4.1499999999999998e-01 1.7470648134725382e+00 1.3323766396248086e+01 1.7011394534779658e+01 6 0 0
2031 444 1 4.1499999999999998e-01 4.4340992254433482e+00 9.5105434047586943e+00 1.8065213681719960e+01 2 2 0
3121 444 4 0.0000000000000000e+00 3.4729999999999999e+00 1.7014299999999999e+01 0.0000000000000000e+00 0 0 0
3122 444 4 -7.4069999999999997e-02 3.4502799999999998e+00 1.7018799999999999e+01 3.5704799999999999e+00 0 0 0
3126 444 4 0.0000000000000000e+00 1.6560500000000000e+00 1.7014299999999999e+01 1.8169999999999999e+00 0 0 0
3134 444 4 0.0000000000000000e+00 5.2898399999999999e+00 1.7014299999999999e+01 1.8169999999999999e+00 0 0 0
3141 444 4 0.0000000000000000e+00 3.4729999999999999e+00 2.0648199999999999e+01 0.0000000000000000e+00 0 0 0
3142 444 4 -7.4069999999999997e-02 3.4707499999999998e+00 2.0650800000000000e+01 3.5906300000000000e+00 0 0 0
3143 444 4 0.0000000000000000e+00 1.6560500000000000e+00 1.8831299999999999e+01 0.0000000000000000e+00 0 0 0
3144 444 4 -7.4069999999999997e-02 1.6555800000000001e+00 1.8835500000000000e+01 3.5963300000000000e+00 0 0 0
3145 444 4 0.0000000000000000e+00 3.4729999999999999e+00 1.8831299999999999e+01 1.8169999999999999e+00 0 0 0
3146 444 4 0.0000000000000000e+00 1.6560500000000000e+00 2.0648199999999999e+01 1.8169999999999999e+00 0 0 0
3149 444 4 0.0000000000000000e+00 5.2898399999999999e+00 1.8831299999999999e+01 0.0000000000000000e+00 0 0 0
3150 444 4 -7.4069999999999997e-02 5.2824700000000000e+00 1.8836900000000000e+01 3.5740200000000000e+00 0 0 0
3152 444 4 0.0000000000000000e+00 5.2898399999999999e+00 2.0648199999999999e+01 1.8169999999999999e+00 0 0 0
3163 444 4 -7.4069999999999997e-02 1.6558999999999999e+00 2.2465100000000000e+01 3.5891000000000002e+00 0 0 0
3164 444 4 0.0000000000000000e+00 3.4729999999999999e+00 2.2465100000000000e+01 1.8169999999999999e+00 0 0 0
3165 444 4 0.0000000000000000e+00 1.6560500000000000e+00 2.4282000000000000e+01 1.8169999999999999e+00 0 0 0
3168 444 4 0.0000000000000000e+00 5.2898399999999999e+00 2.2465100000000000e+01 0.0000000000000000e+00 0 0 0
3169 444 4 -7.4069999999999997e-02 5.2854700000000001e+00 2.2464300000000001e+01 3.5952600000000001e+00 0 0 0
3171 444 4 0.0000000000000000e+00 5.2898399999999999e+00 2.4282000000000000e+01 1.8169999999999999e+00 0 0 0
3174 444 4 0.0000000000000000e+00 1.6560500000000000e+00 2.2465100000000000e+01 0.0000000000000000e+00 0 0 0
3188 444 4 -7.4069999999999997e-02 3.4639400000000000e+00 2.4274200000000000e+01 3.5865499999999999e+00 0 0 0
3189 444 4 0.0000000000000000e+00 3.4729999999999999e+00 2.4282000000000000e+01 0.0000000000000000e+00 0 0 0
3001 444 2 -8.2999999999999996e-01 3.8044575518672028e+00 2.1499413503220531e+01 7.4340681685014269e+00 0 2 0
3002 444 1 4.1499999999999998e-01 3.3326413660720453e+00 2.2322800354179996e+01 7.3089465218868312e+00 0 2 0
1997 444 1 4.1499999999999998e-01 2.3072913407693809e+00 1.7121367717894124e+01 6.5305456500776780e+00 3 -1 0
3003 444 1 4.1499999999999998e-01 4.7269335951495997e+00 2.1733453096310878e+01 7.3316217519787719e+00 0 2 0
1996 444 2 -8.2999999999999996e-01 1.8958677260915175e+00 1.7967999823397516e+01 6.7042628412568419e+00 3 -1 0
1998 444 1 4.1499999999999998e-01 9.6590839978236831e-01 1.7823212844515087e+01 6.5297789834171356e+00 3 -1 0
2327 444 1 4.1499999999999998e-01 3.8717215891960279e+00 1.9473566833554344e+01 7.5692273157565895e+00 0 -1 0
2326 444 2 -8.2999999999999996e-01 4.3010120084760626e+00 1.8682836812005366e+01 7.8958593657170750e+00 0 -1 0
2328 444 1 4.1499999999999998e-01 3.7692555707445012e+00 1.7963196761906680e+01 7.5558799511259451e+00 0 -1 0
1475 444 1 4.1499999999999998e-01 1.5669438325010785e+00 2.0110438805495981e+01 6.5782359050913053e+00 0 -7 0
1476 444 1 4.1499999999999998e-01 1.7001406049982439e+00 2.1618176126497367e+01 6.6079350984163385e+00 0 -7 0
1474 444 2 -8.2999999999999996e-01 1.0527863846829073e+00 2.0914453030153972e+01 6.6519616876547083e+00 0 -7 0
2005 444 2 -8.2999999999999996e-01 2.2297923358397145e+00 2.3755401678864885e+01 6.7528491390646623e+00 -3 -3 0
2007 444 1 4.1499999999999998e-01 1.4447498520668149e+00 2.4002716337543347e+01 6.2642024269057117e+00 -3 -3 0
1009 444 2 -8.2999999999999996e-01 3.1011022370079471e+00 2.1523575351064700e+01 1.2521162740994361e+01 1 1 0
2150 444 1 4.1499999999999998e-01 1.9347962702322041e+00 2.0580575012045461e+01 9.7855957672621212e+00 -1 0 0
449 444 1 4.1499999999999998e-01 4.9258553744571874e+00 1.7027680300483230e+01 1.4918577293303388e+01 -1 -1 0
2849 444 1 4.1499999999999998e-01 1.4844320018660913e+00 1.8319646083868147e+01 9.0733487105357540e+00 -1 2 0
2848 444 2 -8.2999999999999996e-01 1.9806952262833832e+00 1.8661474381889306e+01 9.8170612069921432e+00 -1 2 0
1022 444 2 -8.2999999999999996e-01 5.1163908226470927e+00 2.1251691649416987e+01 1.0342909627888382e+01 -1 -1 0
2021 444 1 4.1499999999999998e-01 4.1705488735089622e+00 2.2444443230042268e+01 1.5252425082148994e+01 -5 -1 0
2850 444 1 4.1499999999999998e-01 2.6889106933144400e+00 1.8030078871908483e+01 9.9435656300396840e+00 -1 2 0
1024 444 1 4.1499999999999998e-01 4.9165831990362800e+00 2.2100901527906615e+01 1.0736802808384082e+01 -1 -1 0
2020 444 2 -8.2999999999999996e-01 3.2540881370334418e+00 2.2720650177487745e+01 1.5245994439885500e+01 -5 -1 0
1011 444 1 4.1499999999999998e-01 2.6630814655826160e+00 2.0813355193238763e+01 1.2990158497690743e+01 1 1 0
1010 444 1 4.1499999999999998e-01 4.0249177871010531e+00 2.1273063515743502e+01 1.2514800486559301e+01 1 1 0
2149 444 2 -8.2999999999999996e-01 1.7517677753861409e+00 2.1492142604424888e+01 9.5580502536057015e+00 -1 0 0
2151 444 1 4.1499999999999998e-01 2.1365691988825466e+00 2.1604429642703369e+01 8.6888257142872405e+00 -1 0 0
2058 444 1 4.1499999999999998e-01 1.8018127490323965e+00 1.9134275565811752e+01 1.4156674926385321e+01 -3 2 0
2056 444 2 -8.2999999999999996e-01 1.5875652730430683e+00 1.9970488412618124e+01 1.3743059076892042e+01 -3 2 0
1157 444 1 4.1499999999999998e-01 4.1981100385829038e+00 1.9072824772884516e+01 1.5946471188922203e+01 -4 -1 0
3029 444 3 1.0000000000000000e+00 1.7731714467078385e+00 2.3469881826299620e+01 1.1208825932836922e+01 -2 2 0
2022 444 1 4.1499999999999998e-01 3.0260953044352341e+00 2.2774236288467165e+01 1.4317888953337407e+01 -5 -1 0
1970 444 1 4.1499999999999998e-01 4.6955645222652427e+00 1.8144228483276223e+01 1.0816652206754881e+01 -2 3 0
388 444 2 -8.2999999999999996e-01 7.6852470905601777e-01 2.4200622269581750e+01 1.3479935237469451e+01 3 -3 0
2254 444 2 -8.2999999999999996e-01 5.4113561022009824e+00 1.8265599300820664e+01 1.3963274528943488e+01 -4 -2 0
390 444 1 4.1499999999999998e-01 4.5821278010980915e-01 2.4075671591903333e+01 1.4376777631036273e+01 3 -3 0
1616 444 1 4.1499999999999998e-01 2.9291393459339528e+00 2.3923647151090993e+01 8.9781720694961162e+00 -1 -5 0
1971 444 1 4.1499999999999998e-01 5.2404916018111845e+00 1.9532882676746055e+01 1.0558603378774148e+01 -2 3 0
2057 444 1 4.1499999999999998e-01 6.3570400196657273e-01 1.9952209560526271e+01 1.3643771834502818e+01 -3 2 0
1026 444 1 4.1499999999999998e-01 4.8330714685096376e+00 2.1336774282001169e+01 9.4325671998599816e+00 -1 -1 0
106 444 2 -8.2999999999999996e-01 3.5154088494375459e+00 1.6698115731897840e+01 1.0434854025885981e+01 2 -1 0
874 444 2 -8.2999999999999996e-01 3.0817228754424558e-01 1.7208251487730895e+01 1.4342487567823625e+01 0 -1 0
1615 444 2 -8.2999999999999996e-01 3.6953699947392682e+00 2.3763709196627342e+01 9.5291191812564335e+00 -1 -5 0
1617 444 1 4.1499999999999998e-01 4.4407091804306660e+00 2.4007596151743833e+01 8.9802829782635971e+00 -1 -5 0
1257 444 1 4.1499999999999998e-01 4.2855386861724538e+00 2.4480439800649933e+01 1.3200555188669851e+01 -5 4 0
773 444 1 4.1499999999999998e-01 2.6596412028705452e-01 2.4336921168708244e+01 8.4115091768579795e+00 -2 -2 0
448 444 2 -8.2999999999999996e-01 4.5304349053497548e+00 1.6380602188522587e+01 1.5502670128422453e+01 -1 -1 0
2863 444 2 -8.2999999999999996e-01 2.6655256312396874e-01 1.9920561934025752e+01 1.9130471796452927e+01 3 3 0
2864 444 1 4.1499999999999998e-01 8.1218010429527798e-01 1.9166883986285523e+01 1.9355176092194597e+01 3 3 0
240 444 1 4.1499999999999998e-01 4.8651313442826059e+00 1.9720620281382342e+01 1.8273026049689474e+01 3 -2 0
1858 444 2 -8.2999999999999996e-01 9.2905099040415773e-01 1.6863814318194191e+01 1.7749486924058935e+01 2 4 0
575 444 1 4.1499999999999998e-01 2.0788739342216775e+00 2.1793532091508791e+01 1.6352280876937744e+01 -1 -3 0
574 444 2 -8.2999999999999996e-01 1.8593880540230390e+00 2.1252309599282661e+01 1.7110658123907928e+01 -1 -3 0
1156 444 2 -8.2999999999999996e-01 3.3630525800022859e+00 1.9190270086685558e+01 1.6399370312053737e+01 -4 -1 0
576 444 1 4.1499999999999998e-01 2.4357605482813542e+00 2.0491604045542442e+01 1.7037489226591912e+01 -1 -3 0
2865 444 1 4.1499999999999998e-01 7.8639332325596911e-01 2.0412101207376299e+01 1.8494557318928180e+01 3 3 0
1767 444 1 4.1499999999999998e-01 3.8096009707613274e+00 1.8312616114717081e+01 1.9798263534534687e+01 -3 -2 0
1766 444 1 4.1499999999999998e-01 4.3420343867623048e+00 1.7428397961704682e+01 1.8690758180911168e+01 -3 -2 0
1158 444 1 4.1499999999999998e-01 3.5604034318007920e+00 1.9007181879144554e+01 1.7317936325453182e+01 -4 -1 0
2647 444 2 -8.2999999999999996e-01 1.9297555016567973e+00 2.3494757562386972e+01 1.8585758804526336e+01 -3 -6 0
2649 444 1 4.1499999999999998e-01 2.2166625415261421e+00 2.2668582596344752e+01 1.8196718759289631e+01 -3 -6 0
2282 444 1 4.1499999999999998e-01 1.8726156988707019e+00 1.6940871542690466e+01 1.9385767475429013e+01 -1 0 0
1765 444 2 -8.2999999999999996e-01 4.1560606936172748e+00 1.8342246872240807e+01 1.8906456644875803e+01 -3 -2 0
1860 444 1 4.1499999999999998e-01 1.0114372883425295e-01 1.6498043422476933e+01 1.7438017675554455e+01 2 4 0
1859 444 1 4.1499999999999998e-01 1.0369278941039606e+00 1.7673118847689643e+01 1.7249866471995599e+01 2 4 0
2648 444 1 4.1499999999999998e-01 9.9636567511211283e-01 2.3368403829931264e+01 1.8756201587667679e+01 -3 -6 0