LAMMPS data file via write_data, version 11 Aug 2017, timestep = 1000000

3570 atoms
11 atom types
2024 bonds
5 bond types
1018 angles
5 angle types
12 dihedrals
4 dihedral types
9 impropers
1 improper types

0.0000000000000000e+00 3.2704500000000003e+01 xlo xhi
0.0000000000000000e+00 3.2704500000000003e+01 ylo yhi
0.0000000000000000e+00 8.0000000000000000e+01 zlo zhi

Masses

1 1.0079
2 15.9994
3 39.0983
4 63.546
5 15.9994
6 12.011
7 12.011
8 15.9994
9 15.9994
10 15.9994
11 1.0079

Bond Coeffs # harmonic

1 450 0.9572
2 570 1.229
3 450 1.364
4 570 1.229
5 553 0.945

Angle Coeffs # harmonic

1 100 123.32
2 85 124
3 55 104.52
4 35 113
5 100 123.32

Dihedral Coeffs # charmm

1 0.922 1 180 0
2 3.741 2 0 0
3 0.922 1 0 0
4 3.741 2 180 0

Improper Coeffs # umbrella

1 21 0

Atoms # full

3049 444 4 -7.4069999999999997e-02 1.6631700000000000e+00 6.6849000000000003e-01 3.5892599999999999e+00 0 0 0
3051 444 4 0.0000000000000000e+00 1.6560500000000000e+00 2.4790000000000001e+00 1.8169999999999999e+00 0 0 0
3060 444 4 0.0000000000000000e+00 1.6560500000000000e+00 6.6205000000000003e-01 0.0000000000000000e+00 0 0 0
721 444 2 -8.2999999999999996e-01 1.4998436495539080e+00 2.1889500262662560e+00 1.5520076613959921e+01 3 -2 0
2919 444 1 4.1499999999999998e-01 1.2849182728150426e+00 6.5032078398551441e-01 9.5878179741997833e+00 7 -3 0
638 444 1 4.1499999999999998e-01 1.8556626976897921e+00 2.2929135442124289e+00 9.5823266390012343e+00 -1 -1 0
723 444 1 4.1499999999999998e-01 1.5262493458194097e+00 1.3510276967399590e+00 1.5982052334481233e+01 3 -2 0
555 444 1 4.1499999999999998e-01 1.9562342093031195e+00 3.6676045995387505e+00 1.1058016878286130e+01 0 0 0
683 444 1 4.1499999999999998e-01 2.0242123041367677e-01 7.0804079921623686e-01 1.3367370208149277e+01 -3 -1 0
553 444 2 -8.2999999999999996e-01 1.9652322665145645e+00 4.0557258009423531e+00 1.1932953403087661e+01 0 0 0
740 444 1 4.1499999999999998e-01 1.9941802498398475e+00 1.6805063135902849e+00 1.8883472794504286e+01 -1 -3 0
739 444 2 -8.2999999999999996e-01 1.7250687361679571e+00 2.3924098229738990e+00 1.9463993496542273e+01 -1 -3 0
455 444 1 4.1499999999999998e-01 5.2956625166258342e-01 3.7091841450782761e+00 1.9080724341159648e+01 0 2 0
3066 444 4 0.0000000000000000e+00 1.6560500000000000e+00 4.2959500000000004e+00 0.0000000000000000e+00 0 0 0
3067 444 4 -7.4069999999999997e-02 1.6527000000000001e+00 4.2977600000000002e+00 3.5861299999999998e+00 0 0 0
3069 444 4 0.0000000000000000e+00 1.6560500000000000e+00 6.1128000000000000e+00 1.8169999999999999e+00 0 0 0
3086 444 4 0.0000000000000000e+00 1.6560500000000000e+00 7.9297500000000003e+00 0.0000000000000000e+00 0 0 0
3087 444 4 -7.4069999999999997e-02 1.6883999999999999e+00 7.9463400000000002e+00 3.5836899999999998e+00 0 0 0
615 444 1 4.1499999999999998e-01 1.8161735394396377e+00 6.6246147094959191e+00 7.6801033912431356e+00 4 0 0
2803 444 2 -8.2999999999999996e-01 7.0920776501207317e-01 7.9785495031829203e+00 1.5427659595949899e+01 2 1 0
2805 444 1 4.1499999999999998e-01 7.2410433703106403e-01 7.0219170139050542e+00 1.5398247678545518e+01 2 1 0
2361 444 1 4.1499999999999998e-01 1.1510256868893820e+00 5.0467145034912084e+00 1.3964191205524289e+01 -1 3 0
2719 444 2 -8.2999999999999996e-01 1.7355084960640874e+00 5.6008948088017387e+00 9.1614823107197125e+00 3 0 0
2359 444 2 -8.2999999999999996e-01 1.2755836055903040e+00 5.1145758582065435e+00 1.4910823376422634e+01 -1 3 0
2360 444 1 4.1499999999999998e-01 1.8215372484881347e+00 4.3611740046755481e+00 1.5135661985300120e+01 -1 3 0
2721 444 1 4.1499999999999998e-01 1.9729759482212750e+00 4.7095196368225700e+00 8.9059595827232965e+00 3 0 0
2465 444 1 4.1499999999999998e-01 1.5205818944037026e+00 8.0042949745524741e+00 1.2307163730672281e+01 -2 1 0
1550 444 1 4.1499999999999998e-01 1.3176705401771323e+00 5.4229143004344795e+00 1.8292531911392089e+01 2 2 0
38 444 1 4.1499999999999998e-01 1.9100670049035001e-01 7.6451763859132198e+00 1.8205111312368384e+01 -1 0 0
1551 444 1 4.1499999999999998e-01 1.5418509948866221e+00 5.6359547047215619e+00 1.6810556112414972e+01 2 2 0
1549 444 2 -8.2999999999999996e-01 1.8425011423753999e+00 5.9276560880518252e+00 1.7671225838281138e+01 2 2 0
3089 444 4 0.0000000000000000e+00 1.6560500000000000e+00 9.7467000000000006e+00 1.8169999999999999e+00 0 0 0
3107 444 4 -7.4069999999999997e-02 1.6631700000000000e+00 1.1569990000000001e+01 3.5892599999999999e+00 0 0 0
3118 444 4 0.0000000000000000e+00 1.6560500000000000e+00 1.1563549999999999e+01 0.0000000000000000e+00 0 0 0
1769 444 1 4.1499999999999998e-01 7.4796884843984679e-01 1.1292401970419482e+01 6.5629217907594084e+00 7 1 0
1990 444 2 -8.2999999999999996e-01 1.7425575906670949e+00 9.9329772700613201e+00 6.8388240888222791e+00 -2 -3 0
1992 444 1 4.1499999999999998e-01 1.7645247595149156e+00 8.9769418335401134e+00 6.7970420412303154e+00 -2 -3 0
714 444 1 4.1499999999999998e-01 7.5956683427533489e-01 9.1131288257472693e+00 8.3632395381157671e+00 1 0 0
2464 444 2 -8.2999999999999996e-01 5.9457091027289655e-01 8.2151009400609301e+00 1.2187595158109627e+01 -2 1 0
2466 444 1 4.1499999999999998e-01 5.1762048538492489e-01 8.4410044967474462e+00 1.1260622285861256e+01 -2 1 0
712 444 2 -8.2999999999999996e-01 3.5326027569069174e-01 8.9647976419509767e+00 9.2171396849205411e+00 1 0 0
3012 444 1 4.1499999999999998e-01 5.9074910099884670e-01 1.1551918570627006e+01 1.5779454248984184e+01 4 1 0
713 444 1 4.1499999999999998e-01 1.2552810149553609e-01 9.8403315596822942e+00 9.5298870254099413e+00 1 0 0
2804 444 1 4.1499999999999998e-01 1.4481561572832593e+00 8.2469728467033523e+00 1.4881640135585300e+01 2 1 0
540 444 1 4.1499999999999998e-01 2.0008884731917171e+00 1.0955039241112152e+01 1.2203064921331057e+01 6 -1 0
691 444 2 -8.2999999999999996e-01 9.2848022835471522e-01 1.0700194326742244e+01 1.8959989177656308e+01 -2 3 0
692 444 1 4.1499999999999998e-01 1.5894220414009093e+00 1.1392570393073981e+01 1.8961813116165644e+01 -2 3 0
693 444 1 4.1499999999999998e-01 6.8170148396366992e-01 1.0606414111041625e+01 1.8039914464276158e+01 -2 3 0
3109 444 4 0.0000000000000000e+00 1.6560500000000000e+00 1.3380500000000000e+01 1.8169999999999999e+00 0 0 0
3124 444 4 0.0000000000000000e+00 1.6560500000000000e+00 1.5197450000000000e+01 0.0000000000000000e+00 0 0 0
3125 444 4 -7.4069999999999997e-02 1.6527000000000001e+00 1.5199260000000001e+01 3.5861299999999998e+00 0 0 0
842 444 1 4.1499999999999998e-01 1.5253994043977444e+00 1.4963905799047938e+01 7.5941016168249629e+00 4 -4 0
2865 444 1 4.1499999999999998e-01 3.3259864059431976e-01 1.3674162176401953e+01 6.6231200354273145e+00 0 0 0
632 444 1 4.1499999999999998e-01 3.1392936908142360e-01 1.4884904688848502e+01 1.3629910397775475e+01 3 0 0
631 444 2 -8.2999999999999996e-01 3.9660000331378920e-01 1.4140871670830014e+01 1.3033410032430913e+01 3 0 0
633 444 1 4.1499999999999998e-01 1.2516444386230063e+00 1.3762660369113112e+01 1.3238561969852451e+01 3 0 0
792 444 1 4.1499999999999998e-01 1.3824395199608865e+00 1.6331780150866457e+01 1.4549527581345195e+01 3 6 0
484 444 2 -8.2999999999999996e-01 1.5970312047552455e+00 1.5596234864326426e+01 1.6180451110068290e+01 3 0 0
486 444 1 4.1499999999999998e-01 1.0498611156257205e+00 1.5036599164896428e+01 1.6731491174312922e+01 3 0 0
3127 444 4 0.0000000000000000e+00 1.6560500000000000e+00 1.7014299999999999e+01 1.8169999999999999e+00 0 0 0
3144 444 4 0.0000000000000000e+00 1.6560500000000000e+00 1.8831250000000001e+01 0.0000000000000000e+00 0 0 0
3145 444 4 -7.4069999999999997e-02 1.6883999999999999e+00 1.8847840000000001e+01 3.5836899999999998e+00 0 0 0
2701 444 2 -8.2999999999999996e-01 9.0704581605976176e-01 2.0228349756585107e+01 7.1733928618456337e+00 5 -2 0
791 444 1 4.1499999999999998e-01 1.3919708302758855e+00 1.7416944696268370e+01 1.3493959695102452e+01 3 6 0
1552 444 2 -8.2999999999999996e-01 1.9077890604256180e+00 1.8403830692248516e+01 1.2163788397439266e+01 2 -2 0
1947 444 1 4.1499999999999998e-01 9.6681749476968504e-01 1.9981584279360398e+01 1.2643220289355078e+01 4 -2 0
790 444 2 -8.2999999999999996e-01 8.1381998480547912e-01 1.6793061660795285e+01 1.3932985753881589e+01 3 6 0
1580 444 1 4.1499999999999998e-01 4.4876909299879331e-01 1.7568144036417525e+01 1.0039095713629374e+01 4 0 0
2614 444 2 -8.2999999999999996e-01 4.5657778523848158e-01 1.8217700127409028e+01 1.7081797031099924e+01 0 1 0
2615 444 1 4.1499999999999998e-01 6.8678438672477526e-01 1.7513176224302239e+01 1.6476087702217004e+01 0 1 0
2616 444 1 4.1499999999999998e-01 4.1475129534601246e-01 1.9001321205054332e+01 1.6533690437526687e+01 0 1 0
3147 444 4 0.0000000000000000e+00 1.6560500000000000e+00 2.0648199999999999e+01 1.8169999999999999e+00 0 0 0
3165 444 4 -7.4069999999999997e-02 1.6631700000000000e+00 2.2471489999999999e+01 3.5892599999999999e+00 0 0 0
3167 444 4 0.0000000000000000e+00 1.6560500000000000e+00 2.4282000000000000e+01 1.8169999999999999e+00 0 0 0
3176 444 4 0.0000000000000000e+00 1.6560500000000000e+00 2.2465050000000002e+01 0.0000000000000000e+00 0 0 0
2271 444 1 4.1499999999999998e-01 6.6365864885326101e-02 2.3137400128537024e+01 6.5658574684231148e+00 0 -2 0
2703 444 1 4.1499999999999998e-01 9.4977357560409059e-01 2.1034931824605259e+01 6.6597472892224205e+00 5 -2 0
2596 444 2 -8.2999999999999996e-01 1.9973562889860264e+00 2.2710674224492379e+01 6.7671203397094457e+00 5 3 0
1824 444 1 4.1499999999999998e-01 1.4094048385714444e+00 2.3134564888397108e+01 1.5387673915627117e+01 0 0 0
1946 444 1 4.1499999999999998e-01 3.2512174584815590e-01 2.1101580369333597e+01 1.1852188330597606e+01 4 -2 0
1945 444 2 -8.2999999999999996e-01 7.4023690968215183e-01 2.0910237344894668e+01 1.2693199379728505e+01 4 -2 0
499 444 2 -8.2999999999999996e-01 6.9682770933227178e-01 2.2423881008210977e+01 9.4004490834594048e+00 0 0 0
501 444 1 4.1499999999999998e-01 1.0404038691056923e+00 2.2416487656500134e+01 8.5070658852074246e+00 0 0 0
500 444 1 4.1499999999999998e-01 1.0479178799574429e+00 2.3226596066129165e+01 9.7859573758440863e+00 0 0 0
1087 444 2 -8.2999999999999996e-01 1.5496975718387549e+00 2.3626954914288827e+01 1.3460134222747454e+01 -4 -4 0
1089 444 1 4.1499999999999998e-01 1.1566924981679576e+00 2.2962132116637068e+01 1.2894634349592058e+01 -4 -4 0
1878 444 1 4.1499999999999998e-01 9.3145355614501962e-02 2.0535811460466263e+01 1.4139634769383225e+01 4 2 0
1823 444 1 4.1499999999999998e-01 2.8504148057279144e-01 2.2354623962895474e+01 1.6035281363796756e+01 0 0 0
2177 444 1 4.1499999999999998e-01 1.8474366044274102e+00 2.1808663557447485e+01 1.7852807026718111e+01 0 2 0
331 444 2 -8.2999999999999996e-01 1.4167107046461594e-01 2.4368057748442109e+01 1.8648871003424617e+01 2 2 0
1822 444 2 -8.2999999999999996e-01 1.0435498187032917e+00 2.2901109517546594e+01 1.6240833756120274e+01 0 0 0
332 444 1 4.1499999999999998e-01 2.7856912757830127e-01 2.3794077590598850e+01 1.7895188057180953e+01 2 2 0
3182 444 4 0.0000000000000000e+00 1.6560500000000000e+00 2.6098949999999999e+01 0.0000000000000000e+00 0 0 0
3183 444 4 -7.4069999999999997e-02 1.6527000000000001e+00 2.6100760000000001e+01 3.5861299999999998e+00 0 0 0
3185 444 4 0.0000000000000000e+00 1.6560500000000000e+00 2.7915800000000001e+01 1.8169999999999999e+00 0 0 0
666 444 1 4.1499999999999998e-01 1.9587037493384412e+00 2.8455291196379584e+01 7.0999444975467148e+00 -3 -2 0
665 444 1 4.1499999999999998e-01 8.6253910061795847e-01 2.7573079885406518e+01 7.6585334677630694e+00 -3 -2 0
664 444 2 -8.2999999999999996e-01 1.6513394110528834e+00 2.8052426333818932e+01 7.9120152597312972e+00 -3 -2 0
1417 444 2 -8.2999999999999996e-01 1.7321449550470005e+00 2.7370784329335219e+01 1.0504323112773456e+01 7 5 0
1418 444 1 4.1499999999999998e-01 8.8586922801637569e-01 2.7723932313985486e+01 1.0778796783645795e+01 7 5 0
429 444 1 4.1499999999999998e-01 2.1913604533464426e-01 2.5151370115718311e+01 1.3727270297176020e+01 1 -4 0
1419 444 1 4.1499999999999998e-01 1.7903300569120524e+00 2.7583652105739137e+01 9.5729081877912119e+00 7 5 0
1646 444 1 4.1499999999999998e-01 2.0168190916602096e+00 2.5041249254150550e+01 8.6404509084387247e+00 4 -5 0
1647 444 1 4.1499999999999998e-01 1.8387232196438781e+00 2.5624023960966376e+01 1.0026290457646974e+01 4 -5 0
2505 444 1 4.1499999999999998e-01 1.4825656196154537e+00 2.8442792064258047e+01 1.3520080035092604e+01 0 0 0
333 444 1 4.1499999999999998e-01 2.9175766944788872e-01 2.5250242258728491e+01 1.8309079991272895e+01 2 2 0
2479 444 2 -8.2999999999999996e-01 9.8943637115387251e-01 2.6804163883335633e+01 1.8207794273549968e+01 3 3 0
2480 444 1 4.1499999999999998e-01 1.7626231874589491e+00 2.6677755345536692e+01 1.8757735257529188e+01 3 3 0
2481 444 1 4.1499999999999998e-01 1.2432260961463788e+00 2.7490837209807463e+01 1.7591107649243021e+01 3 3 0
3202 444 4 0.0000000000000000e+00 1.6560500000000000e+00 2.9732749999999999e+01 0.0000000000000000e+00 0 0 0
3203 444 4 -7.4069999999999997e-02 1.6883999999999999e+00 2.9749340000000000e+01 3.5836899999999998e+00 0 0 0
3205 444 4 0.0000000000000000e+00 1.6560500000000000e+00 3.1549700000000001e+01 1.8169999999999999e+00 0 0 0
2392 444 2 -8.2999999999999996e-01 2.6679790304646894e-01 3.2541169491981485e+01 7.0564783524222445e+00 5 1 0
242 444 1 4.1499999999999998e-01 1.7811509848457301e+00 3.1914158939059046e+01 6.9485121368365244e+00 0 2 0
2907 444 1 4.1499999999999998e-01 1.3864939731809318e+00 3.1983088618225938e+01 1.5535322078470696e+01 -4 -1 0
2905 444 2 -8.2999999999999996e-01 7.3930895690068554e-01 3.2392720058496366e+01 1.6109417610172635e+01 -4 -1 0
1563 444 1 4.1499999999999998e-01 1.0145758461511576e+00 2.9894717504654302e+01 1.9999480920854964e+01 -2 -5 0
2906 444 1 4.1499999999999998e-01 2.2053656864383600e-01 3.1662110102290384e+01 1.6446042539520743e+01 -4 -1 0
3050 444 4 0.0000000000000000e+00 3.4729999999999999e+00 6.6205000000000003e-01 1.8169999999999999e+00 0 0 0
3074 444 4 -7.4069999999999997e-02 3.4685899999999998e+00 2.4710999999999999e+00 3.5892599999999999e+00 0 0 0
3075 444 4 0.0000000000000000e+00 3.4729999999999999e+00 2.4790000000000001e+00 0.0000000000000000e+00 0 0 0
2089 444 2 -8.2999999999999996e-01 2.5052445719770735e+00 3.7387538371925064e+00 7.0304492164588082e+00 3 -3 0
2091 444 1 4.1499999999999998e-01 2.9643138178414734e+00 3.0905410246879836e+00 6.4963073406331935e+00 3 -3 0
1281 444 1 4.1499999999999998e-01 3.1395166850952609e+00 2.9160074606172803e+00 1.3071327372881505e+01 -4 5 0
637 444 2 -8.2999999999999996e-01 2.5878948387247815e+00 2.9056307435135960e+00 9.5141679468463050e+00 -1 -1 0
722 444 1 4.1499999999999998e-01 2.2976853709800915e+00 2.1967000940766366e+00 1.4991284806845121e+01 3 -2 0
1280 444 1 4.1499999999999998e-01 3.4745576474764666e+00 1.4396640750060166e+00 1.3063992220161433e+01 -4 5 0
1279 444 2 -8.2999999999999996e-01 3.5465655199672685e+00 2.2295502272152805e+00 1.3599834452738232e+01 -4 5 0
639 444 1 4.1499999999999998e-01 2.6038930782198553e+00 3.1587519737593492e+00 8.5911806296748239e+00 -1 -1 0
2917 444 2 -8.2999999999999996e-01 2.0751820087612796e+00 1.3096555168025201e-01 9.7360937412566901e+00 7 -3 0
750 444 1 4.1499999999999998e-01 2.9000320493521179e+00 1.8123482905755850e-01 1.1304759508922375e+01 -1 0 0
3064 444 4 0.0000000000000000e+00 3.4729999999999999e+00 6.1128000000000000e+00 0.0000000000000000e+00 0 0 0
3065 444 4 -7.4069999999999997e-02 3.4741700000000000e+00 6.1120599999999996e+00 3.5852599999999999e+00 0 0 0
3068 444 4 0.0000000000000000e+00 3.4729999999999999e+00 4.2959500000000004e+00 1.8169999999999999e+00 0 0 0
3088 444 4 0.0000000000000000e+00 3.4729999999999999e+00 7.9297500000000003e+00 1.8169999999999999e+00 0 0 0
613 444 2 -8.2999999999999996e-01 2.1314109167143642e+00 7.2193957384212899e+00 6.9995935429132778e+00 4 0 0
2090 444 1 4.1499999999999998e-01 2.9389451333724974e+00 4.5675641201532979e+00 6.8274484149089822e+00 3 -3 0
614 444 1 4.1499999999999998e-01 2.0864694442663070e+00 6.7063184080541296e+00 6.1927701151377041e+00 4 0 0
984 444 1 4.1499999999999998e-01 3.6320378414043022e+00 7.1890230442297183e+00 1.1580178757877107e+01 3 -4 0
2720 444 1 4.1499999999999998e-01 2.2718950239368207e+00 5.7801201721263338e+00 9.9337520713868273e+00 3 0 0
2212 444 2 -8.2999999999999996e-01 3.8458413192756864e+00 7.1394353611464103e+00 1.5970439855990453e+01 2 -3 0
554 444 1 4.1499999999999998e-01 2.1640139069143802e+00 4.9800431183809151e+00 1.1783432755434058e+01 0 0 0
1865 444 1 4.1499999999999998e-01 3.4557226343412295e+00 7.9579987286840028e+00 8.1583093227487673e+00 -2 -4 0
982 444 2 -8.2999999999999996e-01 3.1899509578553999e+00 6.3683822729096473e+00 1.1362601588260247e+01 3 -4 0
983 444 1 4.1499999999999998e-01 3.9009600249326275e+00 5.7469668772141560e+00 1.1205945671056989e+01 3 -4 0
1866 444 1 4.1499999999999998e-01 3.9863795108770272e+00 8.1545022950297508e+00 9.5624763845670451e+00 -2 -4 0
878 444 1 4.1499999999999998e-01 2.6733896131900377e+00 7.7185206368369403e+00 1.9186306218970461e+01 -2 1 0
2214 444 1 4.1499999999999998e-01 3.1954705028406010e+00 6.9227160096622073e+00 1.6638483684226742e+01 2 -3 0
3084 444 4 0.0000000000000000e+00 3.4729999999999999e+00 9.7467000000000006e+00 0.0000000000000000e+00 0 0 0
3085 444 4 -7.4069999999999997e-02 3.4742400000000000e+00 9.7598299999999991e+00 3.5896699999999999e+00 0 0 0
3108 444 4 0.0000000000000000e+00 3.4729999999999999e+00 1.1563549999999999e+01 1.8169999999999999e+00 0 0 0
1259 444 1 4.1499999999999998e-01 3.3108599447830196e+00 1.2049718894877795e+01 6.2227001215895479e+00 1 1 0
1991 444 1 4.1499999999999998e-01 2.6399667988233371e+00 1.0202427861437686e+01 6.6431571386447068e+00 -2 -3 0
1560 444 1 4.1499999999999998e-01 4.0470962784033340e+00 9.6156431038719994e+00 1.1409240316139815e+01 0 4 0
1586 444 1 4.1499999999999998e-01 3.8406326347548703e+00 8.4301166447978293e+00 1.4698499861060071e+01 -3 2 0
1585 444 2 -8.2999999999999996e-01 3.3450198847924226e+00 8.8743189842311114e+00 1.4010543141913123e+01 -3 2 0
2326 444 2 -8.2999999999999996e-01 2.9537263139958188e+00 1.0700708182828308e+01 1.0539012801011165e+01 -1 2 0
2327 444 1 4.1499999999999998e-01 3.0121487561034699e+00 1.0277667392651328e+01 9.6823593292060632e+00 -1 2 0
1077 444 1 4.1499999999999998e-01 2.3364937931002827e+00 1.1731463844119190e+01 1.4962865659089459e+01 -3 0 0
2328 444 1 4.1499999999999998e-01 2.9425120205214399e+00 1.1637700624367877e+01 1.0343688323396821e+01 -1 2 0
1864 444 2 -8.2999999999999996e-01 3.8185323047595943e+00 8.6221928175708360e+00 8.7443536108603865e+00 -2 -4 0
1587 444 1 4.1499999999999998e-01 3.8364613942637886e+00 8.6974601704170951e+00 1.3208397131411846e+01 -3 2 0
539 444 1 4.1499999999999998e-01 2.3123174512162938e+00 1.0227860653384759e+01 1.3493847164210814e+01 6 -1 0
538 444 2 -8.2999999999999996e-01 2.0921775436566334e+00 1.1092022411505672e+01 1.3146003853712752e+01 6 -1 0
1075 444 2 -8.2999999999999996e-01 2.4945691691959988e+00 1.2250600877082377e+01 1.5751371121673804e+01 -3 0 0
877 444 2 -8.2999999999999996e-01 2.8987983368338428e+00 8.4444832797939426e+00 1.9768029133288398e+01 -2 1 0
879 444 1 4.1499999999999998e-01 2.0803987555081647e+00 8.9292477759220326e+00 1.9875071255009793e+01 -2 1 0
51 444 1 4.1499999999999998e-01 3.7572618608936810e+00 1.1273162888495349e+01 1.6180974783475403e+01 -1 -1 0
3126 444 4 0.0000000000000000e+00 3.4729999999999999e+00 1.5197450000000000e+01 1.8169999999999999e+00 0 0 0
3132 444 4 -7.4069999999999997e-02 3.4685899999999998e+00 1.3372600000000000e+01 3.5892599999999999e+00 0 0 0
3133 444 4 0.0000000000000000e+00 3.4729999999999999e+00 1.3380500000000000e+01 0.0000000000000000e+00 0 0 0
1258 444 2 -8.2999999999999996e-01 3.0855438791088772e+00 1.2945955741757274e+01 6.4721488028541918e+00 1 1 0
843 444 1 4.1499999999999998e-01 2.9647006065578263e+00 1.4494768523922170e+01 7.6088766218045603e+00 4 -4 0
1260 444 1 4.1499999999999998e-01 2.2316404477578899e+00 1.3100076872386836e+01 6.0680106304286685e+00 1 1 0
1272 444 1 4.1499999999999998e-01 3.2771720519324967e+00 1.2791026788542217e+01 1.3140679192459769e+01 2 3 0
1076 444 1 4.1499999999999998e-01 2.9502806615343413e+00 1.3031530721645595e+01 1.5437193624787650e+01 -3 0 0
1270 444 2 -8.2999999999999996e-01 3.5897478704786367e+00 1.3609220225091141e+01 1.3526798492860488e+01 2 3 0
2061 444 1 4.1499999999999998e-01 3.5317192314081010e+00 1.5889851076478847e+01 1.3335995637745826e+01 1 0 0
2635 444 2 -8.2999999999999996e-01 3.0098427431105534e+00 1.3394129421697855e+01 1.0438296976895218e+01 4 1 0
841 444 2 -8.2999999999999996e-01 2.3388457510056635e+00 1.5032608301560824e+01 8.0939188895960932e+00 4 -4 0
2636 444 1 4.1499999999999998e-01 3.4521084460745777e+00 1.4122064067034261e+01 1.0001553896028835e+01 4 1 0
2637 444 1 4.1499999999999998e-01 2.0771859449942647e+00 1.3575912318661542e+01 1.0322804594278377e+01 4 1 0
1464 444 1 4.1499999999999998e-01 3.2230594256175049e+00 1.3245906203713977e+01 1.8609236398007727e+01 3 -2 0
485 444 1 4.1499999999999998e-01 2.4940923028594129e+00 1.5381155166087462e+01 1.6435901672760018e+01 3 0 0
1462 444 2 -8.2999999999999996e-01 2.4825887741042028e+00 1.2665695836409066e+01 1.8432341986830934e+01 3 -2 0
1463 444 1 4.1499999999999998e-01 2.4480545613745117e+00 1.2604903602628838e+01 1.7477698198445982e+01 3 -2 0
3122 444 4 0.0000000000000000e+00 3.4729999999999999e+00 1.7014299999999999e+01 0.0000000000000000e+00 0 0 0
3123 444 4 -7.4069999999999997e-02 3.4741700000000000e+00 1.7013559999999998e+01 3.5852599999999999e+00 0 0 0
3146 444 4 0.0000000000000000e+00 3.4729999999999999e+00 1.8831250000000001e+01 1.8169999999999999e+00 0 0 0
1529 444 1 4.1499999999999998e-01 2.5050270268431292e+00 1.8095325790918636e+01 6.0049292219266990e+00 -2 1 0
1530 444 1 4.1499999999999998e-01 2.1785911352463159e+00 1.8935848632589313e+01 7.2210115312769059e+00 -2 1 0
1528 444 2 -8.2999999999999996e-01 2.8412681400784261e+00 1.8343256379383657e+01 6.8661517260272031e+00 -2 1 0
2203 444 2 -8.2999999999999996e-01 2.6381621621815010e+00 1.7195991162085303e+01 9.6349504394415355e+00 3 4 0
2059 444 2 -8.2999999999999996e-01 3.8319023192070296e+00 1.6760101840693252e+01 1.3073724133578143e+01 1 0 0
1554 444 1 4.1499999999999998e-01 2.5802034211788807e+00 1.7782819322811299e+01 1.2443852220399769e+01 2 -2 0
2204 444 1 4.1499999999999998e-01 2.8010589107550485e+00 1.7979548032085177e+01 9.1098454598534282e+00 3 4 0
1553 444 1 4.1499999999999998e-01 2.0659792737095310e+00 1.8522664610338460e+01 1.1227259569170389e+01 2 -2 0
2407 444 2 -8.2999999999999996e-01 3.1486365351683299e+00 2.0383350509711914e+01 9.1184836792700530e+00 2 -3 0
2205 444 1 4.1499999999999998e-01 2.5111196166576351e+00 1.6498351931317234e+01 8.9919948611907685e+00 3 4 0
3142 444 4 0.0000000000000000e+00 3.4729999999999999e+00 2.0648199999999999e+01 0.0000000000000000e+00 0 0 0
3143 444 4 -7.4069999999999997e-02 3.4742400000000000e+00 2.0661330000000000e+01 3.5896699999999999e+00 0 0 0
3166 444 4 0.0000000000000000e+00 3.4729999999999999e+00 2.2465050000000002e+01 1.8169999999999999e+00 0 0 0
3190 444 4 -7.4069999999999997e-02 3.4685899999999998e+00 2.4274100000000001e+01 3.5892599999999999e+00 0 0 0
3191 444 4 0.0000000000000000e+00 3.4729999999999999e+00 2.4282000000000000e+01 0.0000000000000000e+00 0 0 0
2597 444 1 4.1499999999999998e-01 2.2624589766594823e+00 2.3601415072093200e+01 6.5379189668805049e+00 5 3 0
2598 444 1 4.1499999999999998e-01 2.6470528443650299e+00 2.2150237452439718e+01 6.3428127143089874e+00 5 3 0
2408 444 1 4.1499999999999998e-01 3.6226872172459350e+00 2.0570699357866843e+01 8.3082925997823374e+00 2 -3 0
1358 444 1 4.1499999999999998e-01 3.6430521103414439e+00 2.2041673252939258e+01 9.8353024478554669e+00 -1 -5 0
1088 444 1 4.1499999999999998e-01 2.3837337594917902e+00 2.3836860156837027e+01 1.3039948775316281e+01 -4 -4 0
916 444 2 -8.2999999999999996e-01 3.9927050348490218e+00 2.4295383213356676e+01 1.2659320773290073e+01 3 2 0
1359 444 1 4.1499999999999998e-01 3.3128702286346661e+00 2.3519129056853366e+01 9.8346250911670747e+00 -1 -5 0
1357 444 2 -8.2999999999999996e-01 4.0319774113183877e+00 2.2904279127241356e+01 9.9798044795854697e+00 -1 -5 0
2409 444 1 4.1499999999999998e-01 2.2391361339357299e+00 2.0607698361907012e+01 8.9217366627290353e+00 2 -3 0
194 444 1 4.1499999999999998e-01 3.1057576853269615e+00 2.1745420170450316e+01 1.9899873879477990e+01 1 -1 0
2176 444 2 -8.2999999999999996e-01 2.2681337780534969e+00 2.1155842428865892e+01 1.8412335095279282e+01 0 2 0
2178 444 1 4.1499999999999998e-01 2.5159134288103076e+00 2.0450894683873930e+01 1.7814098652121256e+01 0 2 0
3180 444 4 0.0000000000000000e+00 3.4729999999999999e+00 2.7915800000000001e+01 0.0000000000000000e+00 0 0 0
3181 444 4 -7.4069999999999997e-02 3.4741700000000000e+00 2.7915060000000000e+01 3.5852599999999999e+00 0 0 0
3184 444 4 0.0000000000000000e+00 3.4729999999999999e+00 2.6098949999999999e+01 1.8169999999999999e+00 0 0 0
1525 444 2 -8.2999999999999996e-01 2.6479346823616838e+00 2.5205372383968676e+01 6.6584934546208894e+00 -1 -2 0
1527 444 1 4.1499999999999998e-01 2.2492123918338067e+00 2.5787783647647064e+01 6.0119257829165793e+00 -1 -2 0
1526 444 1 4.1499999999999998e-01 3.5230613104703385e+00 2.5566620748752165e+01 6.7995116375334756e+00 -1 -2 0
2456 444 1 4.1499999999999998e-01 4.0469572542047452e+00 2.7419036318621224e+01 7.3998700282317955e+00 -1 -1 0
2688 444 1 4.1499999999999998e-01 3.0329316859682298e+00 2.7135486907273894e+01 1.1284826583930645e+01 5 2 0
2504 444 1 4.1499999999999998e-01 2.9324920385505684e+00 2.8178018493648796e+01 1.3174386415551398e+01 0 0 0
2686 444 2 -8.2999999999999996e-01 3.7262422983747423e+00 2.7056324285739372e+01 1.1940025668124495e+01 5 2 0
918 444 1 4.1499999999999998e-01 3.6917851302496376e+00 2.5153735488388737e+01 1.2361140800132043e+01 3 2 0
1645 444 2 -8.2999999999999996e-01 2.1235477177161886e+00 2.4833047442806400e+01 9.5686177969005843e+00 4 -5 0
685 444 2 -8.2999999999999996e-01 2.7552528927371416e+00 2.8442496283261853e+01 1.6539321457488882e+01 -3 0 0
2532 444 1 4.1499999999999998e-01 3.8764741835834005e+00 2.5818796297292522e+01 1.9269231870113032e+01 1 -4 0
2530 444 2 -8.2999999999999996e-01 3.3180412134540229e+00 2.6575476232443165e+01 1.9447616692252080e+01 1 -4 0
686 444 1 4.1499999999999998e-01 3.2318410637754074e+00 2.7630497575241360e+01 1.6366827037626301e+01 -3 0 0
3200 444 4 0.0000000000000000e+00 3.4729999999999999e+00 3.1549700000000001e+01 0.0000000000000000e+00 0 0 0
3201 444 4 -7.4069999999999997e-02 3.4742400000000000e+00 3.1562830000000002e+01 3.5896699999999999e+00 0 0 0
3204 444 4 0.0000000000000000e+00 3.4729999999999999e+00 2.9732749999999999e+01 1.8169999999999999e+00 0 0 0
243 444 1 4.1499999999999998e-01 3.1186366245858643e+00 3.2512587214084235e+01 6.5678402617393097e+00 0 2 0
241 444 2 -8.2999999999999996e-01 2.7199893568574502e+00 3.1839586567885370e+01 7.1195488367950857e+00 0 2 0
512 444 1 4.1499999999999998e-01 3.6716195631500899e+00 2.9964448127081521e+01 6.6753949140960938e+00 -3 0 0
2503 444 2 -8.2999999999999996e-01 2.3450829425091193e+00 2.8857606466858112e+01 1.3505057749760986e+01 0 0 0
363 444 1 4.1499999999999998e-01 2.3431391781498503e+00 3.0692716826063847e+01 1.3741172518651224e+01 -2 -3 0
362 444 1 4.1499999999999998e-01 2.7947187078821938e+00 3.2135230808480237e+01 1.3825581262744505e+01 -2 -3 0
738 444 1 4.1499999999999998e-01 2.4333928138144367e+00 3.0780560669761602e+01 9.7076439627579418e+00 1 -1 0
361 444 2 -8.2999999999999996e-01 2.4321521389182381e+00 3.1423460836138158e+01 1.4352991335736382e+01 -2 -3 0
687 444 1 4.1499999999999998e-01 2.3712530710190385e+00 2.8679351135385552e+01 1.5695120098755554e+01 -3 0 0
737 444 1 4.1499999999999998e-01 3.2744949859979493e+00 2.9878837407326522e+01 8.8293853887086922e+00 1 -1 0
736 444 2 -8.2999999999999996e-01 3.1267192450887396e+00 3.0121583968158628e+01 9.7434253355778662e+00 1 -1 0
748 444 2 -8.2999999999999996e-01 3.2319603979609535e+00 3.2685425997372654e+01 1.2179934965075125e+01 -1 -1 0
749 444 1 4.1499999999999998e-01 3.9340675336828657e+00 3.2052066069214803e+01 1.2031163705165941e+01 -1 -1 0
2126 444 1 4.1499999999999998e-01 3.8711723656073076e+00 2.9690425489059400e+01 1.2841610632118449e+01 3 -6 0
2918 444 1 4.1499999999999998e-01 2.3375322550189339e+00 3.2543143386129131e+01 8.8631940730351513e+00 7 -4 0
2704 444 2 -8.2999999999999996e-01 3.8786414636917477e+00 2.9664165573774810e+01 1.8705701549852868e+01 -2 -4 0
2705 444 1 4.1499999999999998e-01 3.0751374660367676e+00 2.9950113928351389e+01 1.9140266577447971e+01 -2 -4 0
2706 444 1 4.1499999999999998e-01 3.5844765691613421e+00 2.9308865165119915e+01 1.7866975998770869e+01 -2 -4 0
3054 444 4 0.0000000000000000e+00 5.2898399999999999e+00 6.6205000000000003e-01 0.0000000000000000e+00 0 0 0
3055 444 4 -7.4069999999999997e-02 5.2786499999999998e+00 6.5963000000000005e-01 3.5897000000000001e+00 0 0 0
3057 444 4 0.0000000000000000e+00 5.2898399999999999e+00 2.4790000000000001e+00 1.8169999999999999e+00 0 0 0
1699 444 2 -8.2999999999999996e-01 5.2962188296297770e+00 1.8067803587918412e+00 7.0530399246591848e+00 0 4 0
1700 444 1 4.1499999999999998e-01 4.7693081404456583e+00 1.6372672320166928e+00 6.2721029986582559e+00 0 4 0
1058 444 1 4.1499999999999998e-01 5.1766007432739825e+00 8.7970001374297291e-01 9.1259778519363817e+00 0 6 0
2811 444 1 4.1499999999999998e-01 4.7976063998775977e+00 2.6806447399235389e+00 1.4801884736069811e+01 -2 -1 0
1059 444 1 4.1499999999999998e-01 4.3011066551342516e+00 1.3403535593202593e+00 1.0271928961187937e+01 0 6 0
307 444 2 -8.2999999999999996e-01 6.0069126763971399e+00 3.8465761895827830e+00 8.7851080792404908e+00 0 -5 0
1057 444 2 -8.2999999999999996e-01 5.1259632384036848e+00 8.9350750311626481e-01 1.0081738048239218e+01 0 6 0
2809 444 2 -8.2999999999999996e-01 5.6231714765096799e+00 2.8535713736347126e+00 1.5254400644069362e+01 -2 -1 0
309 444 1 4.1499999999999998e-01 5.5267877179860143e+00 3.1583958741077938e+00 8.3245426570359182e+00 0 -5 0
1988 444 1 4.1499999999999998e-01 5.7505246081857306e+00 1.3639962751551111e+00 1.7786968939893669e+01 1 0 0