LAMMPS data file via write_data, version 11 Aug 2017, timestep = 1000000

3543 atoms
10 atom types
2024 bonds
5 bond types
1018 angles
5 angle types
12 dihedrals
4 dihedral types
9 impropers
1 improper types

0.0000000000000000e+00 3.2704500000000003e+01 xlo xhi
0.0000000000000000e+00 3.2704500000000003e+01 ylo yhi
0.0000000000000000e+00 8.0000000000000000e+01 zlo zhi

Masses

1 1.0079
2 15.9994
3 39.0983
4 63.546
5 15.9994
6 12.011
7 15.9994
8 15.9994
9 15.9994
10 1.0079

Bond Coeffs # harmonic

1 450 0.9572
2 570 1.229
3 450 1.364
4 570 1.229
5 553 0.945

Angle Coeffs # harmonic

1 100 123.32
2 85 124
3 55 104.52
4 35 113
5 100 123.32

Dihedral Coeffs # charmm

1 0.922 1 180 0
2 3.741 2 0 0
3 0.922 1 0 0
4 3.741 2 180 0

Improper Coeffs # umbrella

1 21 0

Atoms # full

3049 444 4 -7.4069999999999997e-02 1.6665700000000001e+00 6.6303999999999996e-01 3.5779899999999998e+00 0 0 0
3051 444 4 0.0000000000000000e+00 1.6560500000000000e+00 2.4790000000000001e+00 1.8169999999999999e+00 0 0 0
3060 444 4 0.0000000000000000e+00 1.6560500000000000e+00 6.6205000000000003e-01 0.0000000000000000e+00 0 0 0
2527 444 2 -8.2999999999999996e-01 1.0635447872866974e-01 1.6185790966823690e+00 6.8805037989180704e+00 4 7 0
2528 444 1 4.1499999999999998e-01 1.2040855593466088e-02 2.5055051867853813e+00 6.5330855014009090e+00 4 7 0
594 444 1 4.1499999999999998e-01 2.0357401781759394e+00 2.1187696271898253e+00 7.0284068873711822e+00 0 4 0
2959 444 2 -8.2999999999999996e-01 1.1314178072287508e+00 3.4462080234653136e+00 1.2035032516406458e+01 -2 1 0
2457 444 1 4.1499999999999998e-01 2.0015283401071438e+00 5.1416965191507102e-01 1.3984496910941065e+01 3 -2 0
1838 444 1 4.1499999999999998e-01 1.6171379727794215e+00 1.3048305162842790e+00 1.0654315630194571e+01 2 -3 0
961 444 2 -8.2999999999999996e-01 4.2228426245338241e-01 6.0870024893045038e-01 9.4993900370534163e+00 2 -4 0
2818 444 2 -8.2999999999999996e-01 2.6582038430157934e-01 1.1965004064453424e+00 1.3256166901770737e+01 -1 -3 0
2820 444 1 4.1499999999999998e-01 6.6635126767628683e-01 2.0328892273483472e+00 1.3018973655801098e+01 -1 -3 0
2961 444 1 4.1499999999999998e-01 4.7078855547983772e-01 3.6267729417601848e+00 1.1366304438345573e+01 -2 1 0
962 444 1 4.1499999999999998e-01 1.2994247863142647e-01 9.4642835580880402e-01 8.6528040193986211e+00 2 -4 0
2268 444 1 4.1499999999999998e-01 2.4598067835480036e-01 3.3013933998008071e+00 8.8670662910844857e+00 -1 0 0
1671 444 1 4.1499999999999998e-01 1.7721002551405995e+00 4.9130958382995632e-01 1.9400164464782240e+01 2 0 0
1329 444 1 4.1499999999999998e-01 1.1334868710904512e-01 1.2363109632896898e+00 1.6335457885185857e+01 -1 1 0
1670 444 1 4.1499999999999998e-01 1.6583280342572468e+00 6.1934426388761865e-01 1.7895984220453464e+01 2 0 0
2581 444 2 -8.2999999999999996e-01 1.7591533270803463e+00 1.9307760630872037e+00 1.6562280066220975e+01 0 -2 0
2582 444 1 4.1499999999999998e-01 1.9446143094050330e+00 2.7588958655971800e+00 1.7005059598017727e+01 0 -2 0
3066 444 4 0.0000000000000000e+00 1.6560500000000000e+00 4.2959500000000004e+00 0.0000000000000000e+00 0 0 0
3067 444 4 -7.4069999999999997e-02 1.6715800000000001e+00 4.2899700000000003e+00 3.5598200000000002e+00 0 0 0
3069 444 4 0.0000000000000000e+00 1.6560500000000000e+00 6.1128000000000000e+00 1.8169999999999999e+00 0 0 0
3086 444 4 0.0000000000000000e+00 1.6560500000000000e+00 7.9297500000000003e+00 0.0000000000000000e+00 0 0 0
3087 444 4 -7.4069999999999997e-02 1.6734300000000000e+00 7.9366199999999996e+00 3.5601600000000002e+00 0 0 0
1717 444 2 -8.2999999999999996e-01 1.9836251361164916e+00 4.8516513976596443e+00 7.0013695275623808e+00 -2 5 0
644 444 1 4.1499999999999998e-01 1.3858546928868676e-01 4.9534400087685242e+00 6.9219072833191593e+00 1 1 0
1502 444 1 4.1499999999999998e-01 6.5983342895476638e-01 6.2472921379476709e+00 1.5627170184204264e+01 2 -1 0
1503 444 1 4.1499999999999998e-01 4.1078041123308440e-01 6.0953404874791017e+00 1.4141647174304723e+01 2 -1 0
1470 444 1 4.1499999999999998e-01 1.6325967725646204e+00 6.6025171141269912e+00 1.2030218300551370e+01 0 0 0
1468 444 2 -8.2999999999999996e-01 8.4345093205792632e-01 6.1780954075467269e+00 1.2366888663560257e+01 0 0 0
1469 444 1 4.1499999999999998e-01 1.2222270047354732e-01 6.7055805197818641e+00 1.2023637753519308e+01 0 0 0
2960 444 1 4.1499999999999998e-01 1.4251064872128465e+00 4.3108997979758970e+00 1.2321889665003800e+01 -2 1 0
1406 444 1 4.1499999999999998e-01 1.1093748924887277e+00 7.9824338336446301e+00 1.8613110824770747e+01 -3 0 0
1407 444 1 4.1499999999999998e-01 8.7971830615868718e-01 6.7725254441172611e+00 1.7732613840939912e+01 -3 0 0
1405 444 2 -8.2999999999999996e-01 6.0239533021051739e-01 7.1724717195869925e+00 1.8556850964454458e+01 -3 0 0
1560 444 1 4.1499999999999998e-01 2.0433674838436588e+00 5.4483095435122397e+00 1.6936546753286226e+01 2 4 0
1558 444 2 -8.2999999999999996e-01 1.9608085226318728e+00 6.2480638767942560e+00 1.6417114457357908e+01 2 4 0
3089 444 4 0.0000000000000000e+00 1.6560500000000000e+00 9.7467000000000006e+00 1.8169999999999999e+00 0 0 0
3104 444 4 -7.4069999999999997e-02 1.6665700000000001e+00 1.1564539999999999e+01 3.5779999999999998e+00 0 0 0
3115 444 4 0.0000000000000000e+00 1.6560500000000000e+00 1.1563549999999999e+01 0.0000000000000000e+00 0 0 0
609 444 1 4.1499999999999998e-01 2.5851551905617640e-02 1.0439038414385726e+01 6.9617441335942178e+00 -2 -1 0
68 444 1 4.1499999999999998e-01 1.7920347644622130e+00 1.1179795469016684e+01 7.4009059934004986e+00 3 2 0
67 444 2 -8.2999999999999996e-01 1.9909090055930250e+00 1.0256107363140304e+01 7.5541445985558244e+00 3 2 0
672 444 1 4.1499999999999998e-01 4.8800908913918567e-01 1.0294770980684866e+01 1.2541596604487093e+01 2 2 0
1276 444 2 -8.2999999999999996e-01 5.2437457336299231e-01 9.3158470702604852e+00 1.3915730670535254e+01 -4 0 0
1278 444 1 4.1499999999999998e-01 8.3497289863718516e-01 8.4245112612734872e+00 1.3756730591488775e+01 -4 0 0
670 444 2 -8.2999999999999996e-01 6.5117446573380056e-01 1.0922621830012590e+01 1.1837741316227227e+01 2 2 0
1382 444 1 4.1499999999999998e-01 1.7780396258211959e+00 1.0903701314343763e+01 1.5360818355391240e+01 4 -4 0
2705 444 1 4.1499999999999998e-01 1.9633919719748116e+00 1.1925750554339913e+01 1.1027379986037134e+01 -3 0 0
1950 444 1 4.1499999999999998e-01 1.2974949998145928e+00 1.2217070654903399e+01 1.3177982686765178e+01 0 2 0
2659 444 2 -8.2999999999999996e-01 2.1235247715600830e-01 1.1277142852180829e+01 1.9768449973421244e+01 2 -2 0
1133 444 1 4.1499999999999998e-01 8.5547724437245609e-01 9.4187795107318468e+00 1.7336971443397381e+01 -5 1 0
2660 444 1 4.1499999999999998e-01 5.1737619352076082e-02 1.0368903596266001e+01 1.9512449254406604e+01 2 -2 0
1132 444 2 -8.2999999999999996e-01 1.7496724053082104e+00 9.3910113914133149e+00 1.7677376886044492e+01 -5 1 0
3106 444 4 0.0000000000000000e+00 1.6560500000000000e+00 1.3380500000000000e+01 1.8169999999999999e+00 0 0 0
3121 444 4 0.0000000000000000e+00 1.6560500000000000e+00 1.5197450000000000e+01 0.0000000000000000e+00 0 0 0
3122 444 4 -7.4069999999999997e-02 1.6715800000000001e+00 1.5191470000000001e+01 3.5598200000000002e+00 0 0 0
2945 444 1 4.1499999999999998e-01 7.0074320457807104e-01 1.3396530214931683e+01 7.2422940713606705e+00 0 1 0
1645 444 2 -8.2999999999999996e-01 1.4739216462721794e+00 1.5755534346903829e+01 6.6509900499432160e+00 0 0 0
1647 444 1 4.1499999999999998e-01 7.9080253780411824e-01 1.5764399129802102e+01 7.3214388394571834e+00 0 0 0
2944 444 2 -8.2999999999999996e-01 1.5975186151917877e+00 1.3073958979201926e+01 7.1529955818563442e+00 0 1 0
2946 444 1 4.1499999999999998e-01 1.8433409581143294e+00 1.3293977622396495e+01 6.2544435993258425e+00 0 1 0
721 444 2 -8.2999999999999996e-01 6.0016876103070305e-01 1.3770675460048425e+01 9.6163505888910912e+00 1 -2 0
1949 444 1 4.1499999999999998e-01 5.9167609283369360e-01 1.3152538813341456e+01 1.4136426686368216e+01 0 2 0
723 444 1 4.1499999999999998e-01 1.3150454066911104e+00 1.4357384772334678e+01 9.8632421659418608e+00 1 -2 0
1948 444 2 -8.2999999999999996e-01 1.3574432586755174e+00 1.3090264582968395e+01 1.3565501486378746e+01 0 2 0
722 444 1 4.1499999999999998e-01 9.9108610322864199e-01 1.3169727961069899e+01 8.9820969518717817e+00 1 -2 0
894 444 1 4.1499999999999998e-01 1.7096764236451485e+00 1.6007089538670183e+01 1.0633879976742961e+01 2 1 0
2432 444 1 4.1499999999999998e-01 1.4031502574316674e+00 1.4156342115846043e+01 1.8922281773059630e+01 3 2 0
87 444 1 4.1499999999999998e-01 1.1834772116904826e+00 1.3111952044086463e+01 1.7674856856613850e+01 -3 -1 0
2433 444 1 4.1499999999999998e-01 9.7256800279309708e-01 1.2977895381429047e+01 1.9769487853317077e+01 3 2 0
2431 444 2 -8.2999999999999996e-01 1.1873002176977410e+00 1.3909248093328538e+01 1.9821495759872338e+01 3 2 0
85 444 2 -8.2999999999999996e-01 2.0003713408900623e+00 1.3452672184942271e+01 1.7310403636423050e+01 -3 -1 0
3124 444 4 0.0000000000000000e+00 1.6560500000000000e+00 1.7014299999999999e+01 1.8169999999999999e+00 0 0 0
3141 444 4 0.0000000000000000e+00 1.6560500000000000e+00 1.8831250000000001e+01 0.0000000000000000e+00 0 0 0
3142 444 4 -7.4069999999999997e-02 1.6734300000000000e+00 1.8838120000000000e+01 3.5601600000000002e+00 0 0 0
1646 444 1 4.1499999999999998e-01 1.4640945305453605e+00 1.6640626293754451e+01 6.2866446328475645e+00 0 0 0
2481 444 1 4.1499999999999998e-01 1.8811260238359362e-01 1.8679166344710634e+01 6.7805876522736428e+00 -1 -4 0
2479 444 2 -8.2999999999999996e-01 1.0753665258766645e+00 1.8338954155954433e+01 6.6654007059377864e+00 -1 -4 0
2480 444 1 4.1499999999999998e-01 1.6089928527042063e+00 1.9114322492355576e+01 6.4913927853445292e+00 -1 -4 0
219 444 1 4.1499999999999998e-01 2.9890675187760685e-01 1.7036004473718606e+01 1.1837718442877122e+01 -1 1 0
217 444 2 -8.2999999999999996e-01 4.9088325111335246e-01 1.7257736098973766e+01 1.0926558395443946e+01 -1 1 0
1697 444 1 4.1499999999999998e-01 1.6481026963952667e+00 1.8101055139390361e+01 1.3794999656812635e+01 3 2 0
2429 444 1 4.1499999999999998e-01 5.6166739100219709e-01 1.9825275668401670e+01 9.7233739093905758e+00 3 3 0
218 444 1 4.1499999999999998e-01 9.2219668329871426e-02 1.8118709530746838e+01 1.0799967936097348e+01 -1 1 0
2573 444 1 4.1499999999999998e-01 1.8612985540160265e+00 1.7468485449990197e+01 1.7385866489860540e+01 3 -5 0
2574 444 1 4.1499999999999998e-01 1.8804148518817108e+00 1.7594230330570177e+01 1.8894414809606829e+01 3 -5 0
3144 444 4 0.0000000000000000e+00 1.6560500000000000e+00 2.0648199999999999e+01 1.8169999999999999e+00 0 0 0
3159 444 4 -7.4069999999999997e-02 1.6665700000000001e+00 2.2466040000000000e+01 3.5779999999999998e+00 0 0 0
3161 444 4 0.0000000000000000e+00 1.6560500000000000e+00 2.4282000000000000e+01 1.8169999999999999e+00 0 0 0
3170 444 4 0.0000000000000000e+00 1.6560500000000000e+00 2.2465050000000002e+01 0.0000000000000000e+00 0 0 0
1043 444 1 4.1499999999999998e-01 1.1308958820124597e+00 2.2304471363138777e+01 6.8762081754444848e+00 -1 -4 0
1538 444 1 4.1499999999999998e-01 7.3040684626714769e-01 2.3842959190122247e+01 7.0147205702211330e+00 0 -2 0
1042 444 2 -8.2999999999999996e-01 1.9351990620609977e-01 2.2328113601795483e+01 7.0685599598099591e+00 -1 -4 0
2450 444 1 4.1499999999999998e-01 4.5100399714990280e-01 2.4265947560187268e+01 9.7839949366478436e+00 -2 0 0
1437 444 1 4.1499999999999998e-01 1.4768131383447805e-01 2.2095016413006064e+01 1.0987610920341904e+01 2 -3 0
1436 444 1 4.1499999999999998e-01 8.9724174916425459e-01 2.2945196031975104e+01 1.1991228898352341e+01 2 -3 0
1435 444 2 -8.2999999999999996e-01 4.5830094383008163e-01 2.2987216951816382e+01 1.1141642387169798e+01 2 -3 0
1793 444 1 4.1499999999999998e-01 1.8688072167462275e+00 2.2412745485652383e+01 1.4598676885986414e+01 1 -1 0
1792 444 2 -8.2999999999999996e-01 1.8800404838441063e+00 2.3181758531798536e+01 1.4028830744560281e+01 1 -1 0
1742 444 1 4.1499999999999998e-01 5.7155018865767448e-01 2.3866233595869026e+01 1.7090586238491717e+01 3 -4 0
1023 444 1 4.1499999999999998e-01 1.0854145793617969e+00 2.4158748743550959e+01 1.9384163887348034e+01 4 -2 0
3176 444 4 0.0000000000000000e+00 1.6560500000000000e+00 2.6098949999999999e+01 0.0000000000000000e+00 0 0 0
3177 444 4 -7.4069999999999997e-02 1.6715800000000001e+00 2.6092970000000001e+01 3.5598200000000002e+00 0 0 0
3179 444 4 0.0000000000000000e+00 1.6560500000000000e+00 2.7915800000000001e+01 1.8169999999999999e+00 0 0 0
233 444 1 4.1499999999999998e-01 1.3152214263483610e+00 2.7870187571039121e+01 6.1250166801151025e+00 3 -5 0
232 444 2 -8.2999999999999996e-01 1.9425093004025837e+00 2.8301066508130525e+01 6.7056071515147311e+00 3 -5 0
1537 444 2 -8.2999999999999996e-01 1.0934337794700497e+00 2.4726218827082594e+01 6.9491782422825263e+00 0 -2 0
1232 444 1 4.1499999999999998e-01 3.0150270953761549e-02 2.5876670279048952e+01 6.7895310012310466e+00 5 3 0
1539 444 1 4.1499999999999998e-01 1.7269506323823909e+00 2.4672816815807018e+01 6.2336109854811550e+00 0 -2 0
471 444 1 4.1499999999999998e-01 2.9514037527568376e-01 2.6561534605233877e+01 1.0623970120957772e+01 -4 -2 0
2507 444 1 4.1499999999999998e-01 6.9784422306219751e-01 2.4592204966622223e+01 1.3409885652974081e+01 7 0 0
2506 444 2 -8.2999999999999996e-01 5.2597736801767248e-01 2.5533511077808289e+01 1.3435114200288124e+01 7 0 0
2508 444 1 4.1499999999999998e-01 1.1053403890759732e+00 2.5864944089846205e+01 1.4121206424275538e+01 7 0 0
470 444 1 4.1499999999999998e-01 2.7856006768827551e-01 2.6668741562002165e+01 1.2133979049598585e+01 -4 -2 0
2451 444 1 4.1499999999999998e-01 5.5891194175425096e-01 2.5252735677240757e+01 8.6409721459758675e+00 -2 0 0
469 444 2 -8.2999999999999996e-01 1.7074907210340814e-01 2.7187868291846716e+01 1.1337037316613479e+01 -4 -2 0
2449 444 2 -8.2999999999999996e-01 6.0977046219729425e-01 2.5190736029888470e+01 9.5948074538522476e+00 -2 0 0
1743 444 1 4.1499999999999998e-01 8.6769529612238294e-01 2.5347333151800704e+01 1.6987932331141202e+01 3 -4 0
1741 444 2 -8.2999999999999996e-01 1.2021823138868009e+00 2.4532745611678042e+01 1.7363162519544257e+01 3 -4 0
3196 444 4 0.0000000000000000e+00 1.6560500000000000e+00 2.9732749999999999e+01 0.0000000000000000e+00 0 0 0
3197 444 4 -7.4069999999999997e-02 1.6734300000000000e+00 2.9739619999999999e+01 3.5601600000000002e+00 0 0 0
3199 444 4 0.0000000000000000e+00 1.6560500000000000e+00 3.1549700000000001e+01 1.8169999999999999e+00 0 0 0
2164 444 2 -8.2999999999999996e-01 1.9773584276826821e+00 3.0928841017327297e+01 6.7323186617204280e+00 1 -2 0
2166 444 1 4.1499999999999998e-01 1.0773624498876468e+00 3.1155285513968117e+01 6.4978789122131335e+00 1 -2 0
234 444 1 4.1499999999999998e-01 1.8156239862967991e+00 2.9236037237682993e+01 6.5444777801315954e+00 3 -5 0
2882 444 1 4.1499999999999998e-01 1.0398527902437231e+00 3.0194878767115096e+01 8.6667573139280663e+00 2 -1 0
1033 444 2 -8.2999999999999996e-01 1.8323931689235142e+00 2.9244257049335808e+01 1.2237753391870049e+01 1 -4 0
2881 444 2 -8.2999999999999996e-01 4.5309996622327042e-01 3.0655686379465664e+01 9.2664320314725810e+00 2 -1 0
1034 444 1 4.1499999999999998e-01 1.1769057542099357e+00 2.9936277962076428e+01 1.2325361426959137e+01 1 -4 0
963 444 1 4.1499999999999998e-01 3.2502393367203497e-01 3.2363818937269585e+01 9.4255832862931879e+00 2 -5 0
2456 444 1 4.1499999999999998e-01 2.0247686842701480e+00 3.2198024647701530e+01 1.5102369486581162e+01 3 -3 0
1035 444 1 4.1499999999999998e-01 1.4695662803879856e+00 2.8652021404453734e+01 1.1579083924041381e+01 1 -4 0
2370 444 1 4.1499999999999998e-01 3.5755515536980315e-01 2.9721783199426799e+01 1.6283929132794331e+01 3 0 0
1669 444 2 -8.2999999999999996e-01 1.5633530484444438e+00 3.2695151522110187e+01 1.8611495962532732e+01 2 -1 0
1504 444 2 -8.2999999999999996e-01 1.8720314100462325e+00 3.0736164210616778e+01 1.6401215452314879e+01 -1 1 0
1505 444 1 4.1499999999999998e-01 1.6335854855178127e+00 3.1445690807928354e+01 1.6997828739285310e+01 -1 1 0
1590 444 1 4.1499999999999998e-01 2.0115162186304594e+00 3.1079898457056885e+01 1.8917342495624723e+01 3 1 0
3050 444 4 0.0000000000000000e+00 3.4729999999999999e+00 6.6205000000000003e-01 1.8169999999999999e+00 0 0 0
3074 444 4 -7.4069999999999997e-02 3.4730599999999998e+00 2.4699700000000000e+00 3.5776300000000001e+00 0 0 0
3075 444 4 0.0000000000000000e+00 3.4729999999999999e+00 2.4790000000000001e+00 0.0000000000000000e+00 0 0 0
592 444 2 -8.2999999999999996e-01 2.9040171815465201e+00 2.0649430534088284e+00 6.6291192873103268e+00 0 4 0
593 444 1 4.1499999999999998e-01 2.8219947635375084e+00 1.3774987775850212e+00 5.9681161150179118e+00 0 4 0
1718 444 1 4.1499999999999998e-01 2.3993104909736536e+00 4.0843393013506386e+00 6.6080883884159682e+00 -2 5 0
1944 444 1 4.1499999999999998e-01 4.0528520919204665e+00 1.4033350480643911e+00 8.0239086449686603e+00 -6 0 0
1837 444 2 -8.2999999999999996e-01 2.4523228880484087e+00 1.6142039582369496e+00 1.1005009475905409e+01 2 -3 0
1943 444 1 4.1499999999999998e-01 3.4371244682542743e+00 1.0869112390004678e+00 9.3702558973890699e+00 -6 0 0
1598 444 1 4.1499999999999998e-01 3.6302335127682488e+00 2.9178178703562146e-01 1.1544737854680656e+01 -1 1 0
2455 444 2 -8.2999999999999996e-01 2.5982711271422230e+00 3.0913814229291767e-02 1.4555981286088043e+01 3 -2 0
441 444 1 4.1499999999999998e-01 3.9716890606660034e+00 9.9679523421217053e-01 1.3959031338341656e+01 -3 -4 0
1839 444 1 4.1499999999999998e-01 2.2147242276697980e+00 2.3299944738717397e+00 1.1594435216990368e+01 2 -3 0
2583 444 1 4.1499999999999998e-01 2.4594558577663594e+00 1.8422183870102469e+00 1.5915777329322507e+01 0 -2 0
2469 444 1 4.1499999999999998e-01 4.0151429060992863e+00 3.9716916049350837e+00 8.9039694633443691e+00 -3 3 0
952 444 2 -8.2999999999999996e-01 3.3597352295744880e+00 3.8503424157084121e+00 1.7322425919555553e+01 0 2 0
3064 444 4 0.0000000000000000e+00 3.4729999999999999e+00 6.1128000000000000e+00 0.0000000000000000e+00 0 0 0
3065 444 4 -7.4069999999999997e-02 3.4733399999999999e+00 6.1125100000000003e+00 3.5750400000000000e+00 0 0 0
3068 444 4 0.0000000000000000e+00 3.4729999999999999e+00 4.2959500000000004e+00 1.8169999999999999e+00 0 0 0
3088 444 4 0.0000000000000000e+00 3.4729999999999999e+00 7.9297500000000003e+00 1.8169999999999999e+00 0 0 0
206 444 1 4.1499999999999998e-01 2.5703725001610276e+00 7.9914054925320688e+00 7.0952385456700391e+00 0 -2 0
205 444 2 -8.2999999999999996e-01 3.4144514113986517e+00 7.6876061140440344e+00 6.7613689239593562e+00 0 -2 0
1719 444 1 4.1499999999999998e-01 2.4206756101164046e+00 5.5979956719934112e+00 6.5912606048300288e+00 -2 5 0
207 444 1 4.1499999999999998e-01 3.4384865677660517e+00 7.9943576896322117e+00 5.8549706333892733e+00 0 -2 0
2468 444 1 4.1499999999999998e-01 2.6033029971728077e+00 4.5093078757968268e+00 9.0018065766560458e+00 -3 3 0
2467 444 2 -8.2999999999999996e-01 3.4520240877743658e+00 4.5261192661025644e+00 9.4440982625695415e+00 -3 3 0
836 444 2 -8.2999999999999996e-01 2.5494935378365131e+00 8.1373896564283879e+00 1.1911386120973489e+01 3 0 0
1559 444 1 4.1499999999999998e-01 2.8617697311473460e+00 6.5443941092546023e+00 1.6287923803540021e+01 2 4 0
953 444 1 4.1499999999999998e-01 3.7171331563007488e+00 4.4244508199583965e+00 1.7999846906103219e+01 0 2 0
3084 444 4 0.0000000000000000e+00 3.4729999999999999e+00 9.7467000000000006e+00 0.0000000000000000e+00 0 0 0
3085 444 4 -7.4069999999999997e-02 3.4732200000000000e+00 9.7576699999999992e+00 3.5781399999999999e+00 0 0 0
3105 444 4 0.0000000000000000e+00 3.4729999999999999e+00 1.1563549999999999e+01 1.8169999999999999e+00 0 0 0
69 444 1 4.1499999999999998e-01 2.9386743447139758e+00 1.0233391713375877e+01 7.6862705368876822e+00 3 2 0
839 444 1 4.1499999999999998e-01 2.2826585421074741e+00 8.9639200869278266e+00 1.1509044844926480e+01 3 0 0
1381 444 2 -8.2999999999999996e-01 2.5869867937766546e+00 1.1062256633051938e+01 1.5847333436714811e+01 4 -4 0
1383 444 1 4.1499999999999998e-01 3.2846807634971578e+00 1.0898347488616492e+01 1.5212833884179004e+01 4 -4 0
838 444 1 4.1499999999999998e-01 3.1204547149829871e+00 8.3959539840266810e+00 1.2634837158402071e+01 3 0 0
1134 444 1 4.1499999999999998e-01 2.2472921503119290e+00 9.9614797393230319e+00 1.7091567693705635e+01 -5 1 0
386 444 1 4.1499999999999998e-01 3.1408691315727668e+00 8.9876696615853984e+00 1.8827372230041455e+01 4 -4 0
385 444 2 -8.2999999999999996e-01 3.9716677480244962e+00 8.7179498755339537e+00 1.9218852438855077e+01 4 -4 0
3123 444 4 0.0000000000000000e+00 3.4729999999999999e+00 1.5197450000000000e+01 1.8169999999999999e+00 0 0 0
3129 444 4 -7.4069999999999997e-02 3.4730599999999998e+00 1.3371470000000000e+01 3.5776300000000001e+00 0 0 0
3130 444 4 0.0000000000000000e+00 3.4729999999999999e+00 1.3380500000000000e+01 0.0000000000000000e+00 0 0 0
2699 444 1 4.1499999999999998e-01 3.0161403853920130e+00 1.5093848686845931e+01 6.2161190981846657e+00 4 -2 0
2698 444 2 -8.2999999999999996e-01 3.9075280778353649e+00 1.4996584022494792e+01 6.5510828467840456e+00 4 -2 0
2700 444 1 4.1499999999999998e-01 3.9838565292112929e+00 1.4066412615890972e+01 6.7636556941923480e+00 4 -2 0
2626 444 2 -8.2999999999999996e-01 2.8838481381083021e+00 1.5102096028601691e+01 1.3014991354575431e+01 3 -3 0
2628 444 1 4.1499999999999998e-01 2.2853432669095852e+00 1.4400177425018541e+01 1.3270596695530370e+01 3 -3 0
892 444 2 -8.2999999999999996e-01 2.4329648176133287e+00 1.5380294844840986e+01 1.0648516132029078e+01 2 1 0
2627 444 1 4.1499999999999998e-01 2.8809421291754638e+00 1.5083344031361964e+01 1.2057979433625144e+01 3 -3 0
2706 444 1 4.1499999999999998e-01 2.7025481850975352e+00 1.3204400355382521e+01 1.1359942725078406e+01 -3 0 0
893 444 1 4.1499999999999998e-01 3.1854433958921198e+00 1.5874530021860004e+01 1.0323340063622434e+01 2 1 0
2704 444 2 -8.2999999999999996e-01 2.8437449936901760e+00 1.2295217955361254e+01 1.1095967847721806e+01 -3 0 0
2019 444 1 4.1499999999999998e-01 4.0232429757274950e+00 1.4876127347668229e+01 1.8740225450452890e+01 3 -1 0
86 444 1 4.1499999999999998e-01 2.3027217527385111e+00 1.2766082503607802e+01 1.6715919317193610e+01 -3 -1 0
3119 444 4 0.0000000000000000e+00 3.4729999999999999e+00 1.7014299999999999e+01 0.0000000000000000e+00 0 0 0
3120 444 4 -7.4069999999999997e-02 3.4733399999999999e+00 1.7014009999999999e+01 3.5750400000000000e+00 0 0 0
3143 444 4 0.0000000000000000e+00 3.4729999999999999e+00 1.8831250000000001e+01 1.8169999999999999e+00 0 0 0
1379 444 1 4.1499999999999998e-01 3.3225844484892777e+00 1.6397305448125636e+01 7.5433013574553902e+00 1 -1 0
1378 444 2 -8.2999999999999996e-01 3.2811626496752009e+00 1.7106916135836354e+01 8.1843698579748576e+00 1 -1 0
1696 444 2 -8.2999999999999996e-01 2.5872138279953565e+00 1.7920434310182369e+01 1.3754032569419509e+01 3 2 0
1037 444 1 4.1499999999999998e-01 2.8438195354713680e+00 2.0182139557140452e+01 9.6684151865922576e+00 0 -1 0
1698 444 1 4.1499999999999998e-01 2.6459925866234966e+00 1.6966596887636417e+01 1.3699524714372368e+01 3 2 0
1380 444 1 4.1499999999999998e-01 2.4122031416567031e+00 1.7489554503595510e+01 8.0630062376465990e+00 1 -1 0
452 444 1 4.1499999999999998e-01 2.9699578720700774e+00 1.9742710528290850e+01 1.4269230268897443e+01 0 0 0
1036 444 2 -8.2999999999999996e-01 2.0878213250851685e+00 2.0355377960691488e+01 9.1074454623417864e+00 0 -1 0
453 444 1 4.1499999999999998e-01 3.3173121349853485e+00 2.0158626602213417e+01 1.5682826530215394e+01 0 0 0
2572 444 2 -8.2999999999999996e-01 2.4560140865919462e+00 1.7558830544278386e+01 1.8130435553621766e+01 3 -5 0
171 444 1 4.1499999999999998e-01 3.5366752052471604e+00 1.9005358266388402e+01 1.7694322722907209e+01 -3 1 0
597 444 1 4.1499999999999998e-01 2.2843553460608130e+00 1.9834175501956434e+01 1.9858901496040716e+01 -1 0 0
169 444 2 -8.2999999999999996e-01 4.0174100109603934e+00 1.9747903538564533e+01 1.7328599377295021e+01 -3 1 0
2018 444 1 4.1499999999999998e-01 4.0025303060293052e+00 1.6367274494646693e+01 1.8479559795226120e+01 3 -1 0
3139 444 4 0.0000000000000000e+00 3.4729999999999999e+00 2.0648199999999999e+01 0.0000000000000000e+00 0 0 0
3140 444 4 -7.4069999999999997e-02 3.4732200000000000e+00 2.0659170000000000e+01 3.5781399999999999e+00 0 0 0
3160 444 4 0.0000000000000000e+00 3.4729999999999999e+00 2.2465050000000002e+01 1.8169999999999999e+00 0 0 0
3184 444 4 -7.4069999999999997e-02 3.4730599999999998e+00 2.4272970000000001e+01 3.5776300000000001e+00 0 0 0
3185 444 4 0.0000000000000000e+00 3.4729999999999999e+00 2.4282000000000000e+01 0.0000000000000000e+00 0 0 0
1060 444 2 -8.2999999999999996e-01 2.8912817916208842e+00 2.1888848812706470e+01 7.0960509835616197e+00 3 -3 0
1061 444 1 4.1499999999999998e-01 3.3561897041651130e+00 2.2693107123687692e+01 7.3268361218538898e+00 3 -3 0
1062 444 1 4.1499999999999998e-01 3.2856928990287808e+00 2.1612620107455928e+01 6.2687844622092124e+00 3 -3 0
756 444 1 4.1499999999999998e-01 2.9689164327190629e+00 2.4078357974186648e+01 1.1882513828315039e+01 3 1 0
451 444 2 -8.2999999999999996e-01 3.0994778957462699e+00 2.0513978291238367e+01 1.4821138771543714e+01 0 0 0
1038 444 1 4.1499999999999998e-01 2.4415010807771740e+00 2.0865597527955579e+01 8.3788724999085407e+00 0 -1 0
1794 444 1 4.1499999999999998e-01 2.6298151780361136e+00 2.3041090533885033e+01 1.3450659211517952e+01 1 -1 0
844 444 2 -8.2999999999999996e-01 3.8556785402245453e+00 2.2233292862061422e+01 1.2815091602363147e+01 2 0 0
845 444 1 4.1499999999999998e-01 3.7446844945893023e+00 2.1390402565675430e+01 1.3254919799404330e+01 2 0 0
755 444 1 4.1499999999999998e-01 2.2676073157900949e+00 2.4431002007367592e+01 1.0588024311008200e+01 3 1 0
596 444 1 4.1499999999999998e-01 2.8254038105504207e+00 2.0887545063150625e+01 1.8915729011485759e+01 -1 0 0
595 444 2 -8.2999999999999996e-01 2.7622604386171781e+00 2.0663405052212653e+01 1.9844171805894639e+01 -1 0 0
3174 444 4 0.0000000000000000e+00 3.4729999999999999e+00 2.7915800000000001e+01 0.0000000000000000e+00 0 0 0
3175 444 4 -7.4069999999999997e-02 3.4733399999999999e+00 2.7915510000000001e+01 3.5750400000000000e+00 0 0 0
3178 444 4 0.0000000000000000e+00 3.4729999999999999e+00 2.6098949999999999e+01 1.8169999999999999e+00 0 0 0
1307 444 1 4.1499999999999998e-01 3.7935438262680181e+00 2.7963868159627260e+01 6.6694207070419909e+00 2 -2 0
2290 444 2 -8.2999999999999996e-01 3.8493334088278224e+00 2.4588781283630109e+01 6.9448375180467403e+00 -3 4 0
2292 444 1 4.1499999999999998e-01 3.2002784088129714e+00 2.4991173642600181e+01 7.5219340382092623e+00 -3 4 0
2291 444 1 4.1499999999999998e-01 4.0616141381462469e+00 2.5272123401387883e+01 6.3090600869948679e+00 -3 4 0
183 444 1 4.1499999999999998e-01 2.4776593782716905e+00 2.8267808215321157e+01 8.5650162459656052e+00 -2 -4 0
425 444 1 4.1499999999999998e-01 2.5653290353577645e+00 2.7393523655068634e+01 1.5242145149027467e+01 -7 -2 0
181 444 2 -8.2999999999999996e-01 2.9918898571750479e+00 2.8448130206419066e+01 9.3519615287236117e+00 -2 -4 0
424 444 2 -8.2999999999999996e-01 2.3935935483553261e+00 2.6471389323906809e+01 1.5432951569638865e+01 -7 -2 0
426 444 1 4.1499999999999998e-01 3.1378271292232514e+00 2.6004941564533393e+01 1.5052458801786337e+01 -7 -2 0
754 444 2 -8.2999999999999996e-01 2.7817690143851701e+00 2.4813666937989446e+01 1.1298965484899298e+01 3 1 0
3028 444 3 1.0000000000000000e+00 3.5908340441178579e+00 2.4749856346261474e+01 1.8464185464119875e+01 1 0 0
735 444 1 4.1499999999999998e-01 2.3092337637171751e+00 2.8153937614081652e+01 1.8764336905679105e+01 1 1 0
733 444 2 -8.2999999999999996e-01 2.0557284493122054e+00 2.7267166441719741e+01 1.8508204211652529e+01 1 1 0
734 444 1 4.1499999999999998e-01 2.2811324258016610e+00 2.7211907760547110e+01 1.7579564595990639e+01 1 1 0
3194 444 4 0.0000000000000000e+00 3.4729999999999999e+00 3.1549700000000001e+01 0.0000000000000000e+00 0 0 0
3195 444 4 -7.4069999999999997e-02 3.4732200000000000e+00 3.1560669999999998e+01 3.5781399999999999e+00 0 0 0
3198 444 4 0.0000000000000000e+00 3.4729999999999999e+00 2.9732749999999999e+01 1.8169999999999999e+00 0 0 0
1619 444 1 4.1499999999999998e-01 3.4010664649721991e+00 3.0481819496127546e+01 7.7628547418552092e+00 -1 0 0
2165 444 1 4.1499999999999998e-01 2.4871757632369778e+00 3.1706871436257664e+01 6.5065160584555102e+00 1 -2 0
375 444 1 4.1499999999999998e-01 2.8021470297292903e+00 2.8677860997990429e+01 1.3862540393332615e+01 -2 0 0
373 444 2 -8.2999999999999996e-01 3.1655301165284535e+00 2.8824642280371116e+01 1.4735833573405305e+01 -2 0 0
182 444 1 4.1499999999999998e-01 3.5880076072021194e+00 2.9150955966467173e+01 9.0932890234843100e+00 -2 -4 0
2642 444 1 4.1499999999999998e-01 3.6225208466466756e+00 2.9601897814239887e+01 1.2151739428142493e+01 -3 1 0
374 444 1 4.1499999999999998e-01 2.7484669012712928e+00 2.9631954393036246e+01 1.5036729370729347e+01 -2 0 0
1588 444 2 -8.2999999999999996e-01 2.5326850049950784e+00 3.0378952869961857e+01 1.9308865501025068e+01 3 1 0
1506 444 1 4.1499999999999998e-01 2.7570173935333120e+00 3.0486352951384024e+01 1.6666971035224922e+01 -1 1 0
3054 444 4 0.0000000000000000e+00 5.2898399999999999e+00 6.6205000000000003e-01 0.0000000000000000e+00 0 0 0
3055 444 4 -7.4069999999999997e-02 5.2790600000000003e+00 6.6315000000000002e-01 3.5780400000000001e+00 0 0 0
3057 444 4 0.0000000000000000e+00 5.2898399999999999e+00 2.4790000000000001e+00 1.8169999999999999e+00 0 0 0
1726 444 2 -8.2999999999999996e-01 5.2612140513345915e+00 3.2675634459045777e+00 6.6523202074491188e+00 -3 0 0
1728 444 1 4.1499999999999998e-01 5.9275787531568600e+00 2.5918153587273194e+00 6.5275987746624375e+00 -3 0 0
1727 444 1 4.1499999999999998e-01 4.4292172693794445e+00 2.8078220490888155e+00 6.5398388584751581e+00 -3 0 0
1599 444 1 4.1499999999999998e-01 4.8050350413804823e+00 9.4383294868816481e-01 1.2242280707963321e+01 -1 1 0
439 444 2 -8.2999999999999996e-01 4.5354125082330095e+00 1.7647846827047200e+00 1.4051982713427092e+01 -3 -4 0
440 444 1 4.1499999999999998e-01 4.7865510685630674e+00 1.7677630289160231e+00 1.4975645210590521e+01 -3 -4 0