LAMMPS data file via write_data, version 11 Aug 2017, timestep = 1000000

3561 atoms
11 atom types
2024 bonds
5 bond types
1018 angles
5 angle types
12 dihedrals
4 dihedral types
9 impropers
1 improper types

0.0000000000000000e+00 3.2704500000000003e+01 xlo xhi
0.0000000000000000e+00 3.2704500000000003e+01 ylo yhi
0.0000000000000000e+00 6.5000000000000000e+01 zlo zhi

Masses

1 1.0079
2 15.9994
3 39.0983
4 63.546
5 12.011
6 1.0079
7 12.011
8 15.9994
9 15.9994
10 15.9994
11 1.0079

Bond Coeffs # harmonic

1 450 0.9572
2 570 1.229
3 450 1.364
4 570 1.229
5 553 0.945

Angle Coeffs # harmonic

1 100 123.32
2 85 124
3 55 104.52
4 35 113
5 100 123.32

Dihedral Coeffs # charmm

1 0.922 1 180 0
2 3.741 2 0 0
3 0.922 1 0 0
4 3.741 2 180 0

Improper Coeffs # umbrella

1 21 0

Atoms # full

3049 444 4 -7.4069999999999997e-02 1.6569900000000000e+00 6.5256000000000003e-01 3.6006900000000002e+00 0 0 0
3050 444 4 0.0000000000000000e+00 3.4729999999999999e+00 6.6205000000000003e-01 1.8169999999999999e+00 0 0 0
3051 444 4 0.0000000000000000e+00 1.6560500000000000e+00 2.4790000000000001e+00 1.8169999999999999e+00 0 0 0
3054 444 4 0.0000000000000000e+00 5.2898399999999999e+00 6.6205000000000003e-01 0.0000000000000000e+00 0 0 0
3055 444 4 -7.4069999999999997e-02 5.2610400000000004e+00 6.4537999999999995e-01 3.6028300000000000e+00 0 0 0
3057 444 4 0.0000000000000000e+00 5.2898399999999999e+00 2.4790000000000001e+00 1.8169999999999999e+00 0 0 0
3060 444 4 0.0000000000000000e+00 1.6560500000000000e+00 6.6205000000000003e-01 0.0000000000000000e+00 0 0 0
3064 444 4 0.0000000000000000e+00 3.4729999999999999e+00 6.1128000000000000e+00 0.0000000000000000e+00 0 0 0
3065 444 4 -7.4069999999999997e-02 3.4766800000000000e+00 6.1181400000000004e+00 3.5920600000000000e+00 0 0 0
3066 444 4 0.0000000000000000e+00 1.6560500000000000e+00 4.2959500000000004e+00 0.0000000000000000e+00 0 0 0
3067 444 4 -7.4069999999999997e-02 1.6651100000000001e+00 4.2967700000000004e+00 3.5705600000000000e+00 0 0 0
3068 444 4 0.0000000000000000e+00 3.4729999999999999e+00 4.2959500000000004e+00 1.8169999999999999e+00 0 0 0
3069 444 4 0.0000000000000000e+00 1.6560500000000000e+00 6.1128000000000000e+00 1.8169999999999999e+00 0 0 0
3074 444 4 -7.4069999999999997e-02 3.4573000000000000e+00 2.4542700000000002e+00 3.6023800000000001e+00 0 0 0
3075 444 4 0.0000000000000000e+00 3.4729999999999999e+00 2.4790000000000001e+00 0.0000000000000000e+00 0 0 0
3076 444 4 0.0000000000000000e+00 5.2898399999999999e+00 4.2959500000000004e+00 0.0000000000000000e+00 0 0 0
3077 444 4 0.0000000000000000e+00 5.2898399999999999e+00 6.1128000000000000e+00 1.8169999999999999e+00 0 0 0
3086 444 4 0.0000000000000000e+00 1.6560500000000000e+00 7.9297500000000003e+00 0.0000000000000000e+00 0 0 0
3087 444 4 -7.4069999999999997e-02 1.6556900000000001e+00 7.9243600000000001e+00 3.5814599999999999e+00 0 0 0
3088 444 4 0.0000000000000000e+00 3.4729999999999999e+00 7.9297500000000003e+00 1.8169999999999999e+00 0 0 0
3092 444 4 0.0000000000000000e+00 5.2898399999999999e+00 7.9297500000000003e+00 0.0000000000000000e+00 0 0 0
3093 444 4 -7.4069999999999997e-02 5.2848100000000002e+00 7.9344000000000001e+00 3.5718399999999999e+00 0 0 0
3101 444 4 -7.4069999999999997e-02 5.2428999999999997e+00 4.2566899999999999e+00 3.5816699999999999e+00 0 0 0
1022 444 1 4.1499999999999998e-01 3.8419278640350925e+00 3.2213180953228995e+00 6.5607526883636957e+00 5 1 0
1023 444 1 4.1499999999999998e-01 2.3850013250614022e+00 3.0439615126930892e+00 6.1895319130740596e+00 5 1 0
1021 444 2 -8.2999999999999996e-01 3.0003173478841929e+00 3.6773011198835022e+00 6.5589897235308072e+00 5 1 0
2391 444 1 4.1499999999999998e-01 1.7707736581585740e+00 5.0214919758320375e+00 6.7176033692973238e+00 -2 3 0
2389 444 2 -8.2999999999999996e-01 9.2584017816700559e-01 5.4558175051795725e+00 6.8345659117518816e+00 -2 3 0
2390 444 1 4.1499999999999998e-01 9.1548466864100853e-01 6.1437796904750481e+00 6.1691092170801491e+00 -2 3 0
202 444 2 -8.2999999999999996e-01 4.8548665558326594e+00 5.5149352216313261e+00 7.2859247496842645e+00 -1 -1 0
1220 444 1 4.1499999999999998e-01 4.0302408317368901e+00 7.1072461960304008e+00 7.8793432350062389e+00 -2 1 0
2330 444 1 4.1499999999999998e-01 1.8924995300473318e-01 6.9667345270488268e-01 6.4198984341586609e+00 2 1 0
204 444 1 4.1499999999999998e-01 4.1114694122261666e+00 4.9438853757494758e+00 7.0922868887272381e+00 -1 -1 0
1219 444 2 -8.2999999999999996e-01 3.6200951395610241e+00 7.8186252800342935e+00 8.3712303367735128e+00 -2 1 0
399 444 1 4.1499999999999998e-01 8.3471127184305871e-01 9.2665064855389678e-01 9.8282963204937843e+00 5 -3 0
1841 444 1 4.1499999999999998e-01 2.6517260594582641e+00 1.4220160091422224e-01 8.7222790877267240e+00 1 2 0
2041 444 2 -8.2999999999999996e-01 4.9299752482702628e+00 6.7739176692283909e+00 1.2541020177196465e+01 -2 8 0
1840 444 2 -8.2999999999999996e-01 2.6189798705007532e+00 6.4889116643494138e-01 9.5337130877309075e+00 1 2 0
568 444 2 -8.2999999999999996e-01 2.2548700510831994e+00 3.3020543736096641e+00 9.8481634197524652e+00 1 1 0
569 444 1 4.1499999999999998e-01 2.3050975958332089e+00 2.3486859305082213e+00 9.7788932704402569e+00 1 1 0
570 444 1 4.1499999999999998e-01 2.0857156526957352e+00 3.5990575079804406e+00 8.9540672951868530e+00 1 1 0
256 444 2 -8.2999999999999996e-01 4.7326832416052778e+00 2.4468462704288414e+00 1.1807682885064875e+01 4 0 0
258 444 1 4.1499999999999998e-01 5.2779234298013513e+00 2.1913599993408042e+00 1.1063591743289376e+01 4 0 0
1295 444 1 4.1499999999999998e-01 8.1199965645997546e-02 3.1152640929926152e+00 1.1104006320283947e+01 2 -1 0
159 444 1 4.1499999999999998e-01 4.5339994974604645e+00 1.4242029934451044e+00 1.6231860326586592e+01 1 2 0
1167 444 1 4.1499999999999998e-01 3.3515933262446453e+00 6.1784464922390443e+00 1.2813332144079958e+01 -2 3 0
1166 444 1 4.1499999999999998e-01 2.4537376340981663e+00 5.6168535418975774e+00 1.1731498605207694e+01 -2 3 0
1165 444 2 -8.2999999999999996e-01 2.4622873911577416e+00 5.8607182286884667e+00 1.2657073580305932e+01 -2 3 0
2014 444 2 -8.2999999999999996e-01 1.4752713800462820e+00 5.5062291368209557e+00 1.5105768974621505e+01 -1 0 0
2748 444 1 4.1499999999999998e-01 5.3641547737957129e+00 3.7780091252318209e+00 1.2993353823533482e+01 0 0 0
2015 444 1 4.1499999999999998e-01 1.6330549873621898e+00 5.5787734352324563e+00 1.4164454188479297e+01 -1 0 0
2747 444 1 4.1499999999999998e-01 5.3295189720489127e+00 5.2575906318531382e+00 1.3311998574569941e+01 0 0 0
2042 444 1 4.1499999999999998e-01 5.0013528059349817e+00 7.3016671978953083e+00 1.1745647593586332e+01 -2 8 0
552 444 1 4.1499999999999998e-01 2.8804414217721069e-01 1.9045459163932248e+00 1.3813110344610857e+01 0 -3 0
257 444 1 4.1499999999999998e-01 3.9106590059622550e+00 2.7389609838533606e+00 1.1413757813088267e+01 4 0 0
655 444 2 -8.2999999999999996e-01 3.8382837968177546e+00 2.2031635817736750e+00 1.4707389475535864e+01 1 2 0
586 444 2 -8.2999999999999996e-01 1.3533256599662473e+00 2.8766006043242327e+00 1.6008010853270747e+01 1 5 0
587 444 1 4.1499999999999998e-01 2.1462563816782492e+00 2.5547449847921055e+00 1.5579173330369722e+01 1 5 0
588 444 1 4.1499999999999998e-01 1.3460224334161546e+00 3.8161215623639939e+00 1.5825038980477670e+01 1 5 0
550 444 2 -8.2999999999999996e-01 5.6724945197794210e-02 1.0794218392396628e+00 1.3386620382575739e+01 0 -3 0
1813 444 2 -8.2999999999999996e-01 1.8785035421209850e+00 8.1727583523369614e+00 1.5833286596999729e+01 2 -1 0
656 444 1 4.1499999999999998e-01 3.4228576188244362e+00 1.5198193399903159e+00 1.4181372263303437e+01 1 2 0
2016 444 1 4.1499999999999998e-01 1.4139716985853712e+00 6.4119463931910587e+00 1.5409331904846679e+01 -1 0 0
1842 444 1 4.1499999999999998e-01 3.0908566514442781e+00 1.1251469229970414e-01 1.0170787987084271e+01 1 2 0
657 444 1 4.1499999999999998e-01 4.3772515662570104e+00 2.6910068175497024e+00 1.4084689827962221e+01 1 2 0
551 444 1 4.1499999999999998e-01 8.8088588295406978e-01 5.9502309409768317e-01 1.3338153637280282e+01 0 -3 0
2043 444 1 4.1499999999999998e-01 5.1548917441714401e+00 7.3765474947422600e+00 1.3249879602470688e+01 -2 8 0
1155 444 1 4.1499999999999998e-01 5.3538820657349468e+00 3.9884225586481031e-01 1.2240670899699200e+01 -3 1 0
2829 444 1 4.1499999999999998e-01 1.8955601008444196e+00 9.1160262510377277e-01 1.7194080225221651e+01 0 -1 0
837 444 1 4.1499999999999998e-01 3.8876757949928988e+00 1.8277334672892245e+00 1.9412184643904670e+01 -2 -1 0
214 444 2 -8.2999999999999996e-01 4.7513209238611607e+00 7.9762280779971562e+00 2.1502813899139039e+01 -4 -1 0
1494 444 1 4.1499999999999998e-01 1.4771679155748214e+00 2.5921331143119763e+00 1.9115235787422169e+01 3 -1 0
1218 444 1 4.1499999999999998e-01 1.9150340330896931e+00 8.0389780243533444e+00 1.8862835655570539e+01 1 1 0
628 444 2 -8.2999999999999996e-01 1.5556005098331727e+00 6.7890053241473982e+00 2.2598080095653224e+01 3 1 0
2109 444 1 4.1499999999999998e-01 3.5570410974854902e+00 5.0646662622899843e+00 1.7288556248172707e+01 3 2 0
630 444 1 4.1499999999999998e-01 1.2664251308210268e+00 5.8817349017140739e+00 2.2500766030365643e+01 3 1 0
2108 444 1 4.1499999999999998e-01 2.7318392558864746e+00 5.8976507826110520e+00 1.8246196007705041e+01 3 2 0
778 444 2 -8.2999999999999996e-01 2.6021891218374718e+00 1.3748160692569622e+00 2.1686907263255183e+01 1 0 0
835 444 2 -8.2999999999999996e-01 4.5896301185246653e+00 1.2508458681280379e+00 1.9713336761043980e+01 -2 -1 0
836 444 1 4.1499999999999998e-01 4.7896606046739896e+00 7.0069407774153947e-01 1.8956004245207499e+01 -2 -1 0
1492 444 2 -8.2999999999999996e-01 2.4317947737523626e+00 2.6325097933757839e+00 1.9172588499678927e+01 3 -1 0
1493 444 1 4.1499999999999998e-01 2.6716638379053474e+00 3.3961723218256088e+00 1.8647693487490539e+01 3 -1 0
849 444 1 4.1499999999999998e-01 3.3814980448039060e+00 4.9018007879802363e+00 2.0007308585715396e+01 4 -1 0
572 444 1 4.1499999999999998e-01 2.2267864129056840e+00 3.9350397238832140e+00 2.3600154061870622e+01 5 1 0
847 444 2 -8.2999999999999996e-01 3.6941341159386045e+00 5.1676819502257825e+00 2.0872061838205248e+01 4 -1 0
1110 444 1 4.1499999999999998e-01 4.6794105523238221e+00 4.2987576256380242e+00 2.1921174857314639e+01 1 -3 0
571 444 2 -8.2999999999999996e-01 1.5538111637976220e+00 3.5847996196463137e+00 2.3016485798984057e+01 5 1 0
573 444 1 4.1499999999999998e-01 1.9699925908629663e+00 2.8335187139573490e+00 2.2593871870848396e+01 5 1 0
1216 444 2 -8.2999999999999996e-01 2.0017762155516095e+00 7.2739381710595046e+00 1.8294133910224431e+01 1 1 0
852 444 1 4.1499999999999998e-01 3.4783488076331195e+00 6.0984695466243366e+00 2.0929533504875543e+01 4 -1 0
780 444 1 4.1499999999999998e-01 2.9590306796705836e+00 1.9093852543734389e+00 2.0977589140618988e+01 1 0 0
2828 444 1 4.1499999999999998e-01 4.4218612492362813e-01 1.2685437202769474e+00 1.6965624255787723e+01 0 -1 0
1515 444 1 4.1499999999999998e-01 1.2164294279564081e+00 7.9624212063417754e-01 2.2772930471856878e+01 3 3 0
1513 444 2 -8.2999999999999996e-01 6.1501285655952442e-01 4.1528385793180506e-01 2.3412775478211813e+01 3 3 0
2827 444 2 -8.2999999999999996e-01 1.0065699292802293e+00 6.6668434005265698e-01 1.7450875110141681e+01 0 -1 0
779 444 1 4.1499999999999998e-01 3.0856556498379288e+00 5.5046396911273243e-01 2.1632718394190714e+01 1 0 0
629 444 1 4.1499999999999998e-01 1.9743557848697630e+00 6.8164527486972739e+00 2.3458383895735622e+01 3 1 0
157 444 2 -8.2999999999999996e-01 4.9909596612941298e+00 1.0074773692843200e+00 1.6962449030426697e+01 1 2 0
1217 444 1 4.1499999999999998e-01 2.2135259751873164e+00 7.6369721774220789e+00 1.7434133780325865e+01 1 1 0
2107 444 2 -8.2999999999999996e-01 3.2508313217375031e+00 5.0949971843468562e+00 1.8194948771308294e+01 3 2 0
353 444 1 4.1499999999999998e-01 4.5163723789442125e+00 1.0827737252262983e+00 2.3798394289994000e+01 2 3 0
1108 444 2 -8.2999999999999996e-01 5.3461409270206506e+00 3.9478800078221417e+00 2.2511587591594431e+01 1 -3 0
2150 444 1 4.1499999999999998e-01 5.7737008365483744e-01 5.3229077686840327e+00 1.7306346252220742e+01 2 0 0
158 444 1 4.1499999999999998e-01 5.1392338649299001e+00 1.0786485123417129e-01 1.6670996924093615e+01 1 2 0
215 444 1 4.1499999999999998e-01 4.1614681608947404e+00 8.1542618999649115e+00 2.0770277607043191e+01 -4 -1 0
1554 444 1 4.1499999999999998e-01 1.0706300869455430e+00 8.0629863953055647e+00 2.7520868171248363e+01 1 4 0
354 444 1 4.1499999999999998e-01 4.6616927780473407e+00 2.0770036028017505e-01 2.5025188340254591e+01 2 3 0
14 444 1 4.1499999999999998e-01 5.2410758236619714e-01 1.3307954970223899e+00 2.7048193732377595e+01 2 -2 0
2688 444 1 4.1499999999999998e-01 3.6045043193101582e+00 7.8516977421145668e+00 2.5752536676952321e+01 1 -2 0
1210 444 2 -8.2999999999999996e-01 1.6161272024278743e+00 7.0249691424594198e+00 3.0551129030345738e+01 0 5 0
1384 444 2 -8.2999999999999996e-01 1.9789194072805036e+00 3.0776850691921926e+00 3.0535128971893744e+01 1 -2 0
352 444 2 -8.2999999999999996e-01 4.9385706429488554e+00 1.0466163816679024e+00 2.4656690899450602e+01 2 3 0
810 444 1 4.1499999999999998e-01 2.9253927951225775e+00 5.2469448200976752e+00 2.5605463082565834e+01 0 4 0
492 444 1 4.1499999999999998e-01 1.3471812201489072e-01 2.6392463169113114e+00 3.0695575280744720e+01 4 1 0
1819 444 2 -8.2999999999999996e-01 3.6849636266131536e+00 6.0602238645010429e+00 2.7220720001056254e+01 -3 0 0
2686 444 2 -8.2999999999999996e-01 3.4636379658081533e+00 8.0099030680968184e+00 2.4819070295599001e+01 1 -2 0
808 444 2 -8.2999999999999996e-01 2.8783952474093422e+00 4.4060404192656559e+00 2.5150597318311632e+01 0 4 0
809 444 1 4.1499999999999998e-01 1.9975505444020754e+00 4.0811750252267345e+00 2.5337163395863968e+01 0 4 0
2323 444 2 -8.2999999999999996e-01 4.0681702706511697e-01 4.1595715469275714e+00 2.6311307286735442e+01 0 1 0
1636 444 2 -8.2999999999999996e-01 3.8569838358301345e+00 5.4372313141029558e+00 3.1295017270142697e+01 0 -1 0
1821 444 1 4.1499999999999998e-01 3.9349527453915809e+00 6.9755574093166013e+00 2.7346822302475520e+01 -3 0 0
1212 444 1 4.1499999999999998e-01 2.4252874357052812e+00 6.6099749066681284e+00 3.0849913419305452e+01 0 5 0
706 444 2 -8.2999999999999996e-01 3.7767891272898488e+00 2.4571892902994297e-01 3.0742848851355340e+01 1 2 0
2956 444 2 -8.2999999999999996e-01 1.9043722618296748e+00 5.1192421999970794e-01 2.6070108242565308e+01 -1 1 0
1638 444 1 4.1499999999999998e-01 4.2158421176463730e+00 5.9738683295032988e+00 3.2001751530853895e+01 0 -1 0
708 444 1 4.1499999999999998e-01 4.7015716800164657e+00 2.9790345977121929e-01 3.0501423110756456e+01 1 2 0
1211 444 1 4.1499999999999998e-01 1.5586106466408352e+00 6.7981185058216402e+00 2.9622978640737351e+01 0 5 0
1637 444 1 4.1499999999999998e-01 4.6176413448035030e+00 4.9916314487163644e+00 3.0922092656651049e+01 0 -1 0
707 444 1 4.1499999999999998e-01 3.4263221967104407e+00 1.1128866821366938e+00 3.0539317967335968e+01 1 2 0
210 444 1 4.1499999999999998e-01 3.9561751668360241e+00 2.1215555662691807e+00 2.7641926426675720e+01 2 -2 0
1553 444 1 4.1499999999999998e-01 3.2461939378385413e-01 6.7496950845188843e+00 2.7623967450200155e+01 1 4 0
1820 444 1 4.1499999999999998e-01 2.8556389067777670e+00 5.9710668224827979e+00 2.7690297861828508e+01 -3 0 0
1386 444 1 4.1499999999999998e-01 2.5121641072851180e+00 3.7927672182000118e+00 3.0882317200319712e+01 1 -2 0
1522 444 2 -8.2999999999999996e-01 5.0160066596302064e+00 3.8936306859842427e+00 2.7430339796447061e+01 0 -2 0
209 444 1 4.1499999999999998e-01 2.7168269247855283e+00 1.2911516857500969e+00 2.7384359400767728e+01 2 -2 0
1385 444 1 4.1499999999999998e-01 2.4665787183107066e+00 2.7621963983785895e+00 2.9774282383936935e+01 1 -2 0
208 444 2 -8.2999999999999996e-01 3.2132914179176999e+00 1.7125906781165376e+00 2.8085890106710863e+01 2 -2 0
1524 444 1 4.1499999999999998e-01 4.5808825982060650e+00 4.7454835133369002e+00 2.7395047678673439e+01 0 -2 0
1552 444 2 -8.2999999999999996e-01 1.1493267930534772e+00 7.1725847970125258e+00 2.7863248019318256e+01 1 4 0
2325 444 1 4.1499999999999998e-01 1.6259399012585180e-01 3.2889703911158255e+00 2.6625378648374110e+01 0 1 0
2958 444 1 4.1499999999999998e-01 1.3326242659949326e+00 5.6632396934061613e-01 2.5304355233829749e+01 -1 1 0
783 444 1 4.1499999999999998e-01 5.1043438643646919e+00 7.4138969755576669e+00 2.4401739840160239e+01 2 -1 0
3084 444 4 0.0000000000000000e+00 3.4729999999999999e+00 9.7467000000000006e+00 0.0000000000000000e+00 0 0 0
3085 444 4 -7.4069999999999997e-02 3.4625400000000002e+00 9.7446500000000000e+00 3.6002299999999998e+00 0 0 0
3089 444 4 0.0000000000000000e+00 1.6560500000000000e+00 9.7467000000000006e+00 1.8169999999999999e+00 0 0 0
3095 444 4 0.0000000000000000e+00 5.2898399999999999e+00 9.7467000000000006e+00 1.8169999999999999e+00 0 0 0
3106 444 4 -7.4069999999999997e-02 1.6569900000000000e+00 1.1554060000000000e+01 3.6006900000000002e+00 0 0 0
3107 444 4 0.0000000000000000e+00 3.4729999999999999e+00 1.1563549999999999e+01 1.8169999999999999e+00 0 0 0
3108 444 4 0.0000000000000000e+00 1.6560500000000000e+00 1.3380500000000000e+01 1.8169999999999999e+00 0 0 0
3111 444 4 0.0000000000000000e+00 5.2898399999999999e+00 1.1563549999999999e+01 0.0000000000000000e+00 0 0 0
3112 444 4 -7.4069999999999997e-02 5.2610400000000004e+00 1.1546880000000000e+01 3.6028300000000000e+00 0 0 0
3114 444 4 0.0000000000000000e+00 5.2898399999999999e+00 1.3380500000000000e+01 1.8169999999999999e+00 0 0 0
3117 444 4 0.0000000000000000e+00 1.6560500000000000e+00 1.1563549999999999e+01 0.0000000000000000e+00 0 0 0
3123 444 4 0.0000000000000000e+00 1.6560500000000000e+00 1.5197450000000000e+01 0.0000000000000000e+00 0 0 0
3124 444 4 -7.4069999999999997e-02 1.6651100000000001e+00 1.5198270000000001e+01 3.5705600000000000e+00 0 0 0
3125 444 4 0.0000000000000000e+00 3.4729999999999999e+00 1.5197450000000000e+01 1.8169999999999999e+00 0 0 0
3131 444 4 -7.4069999999999997e-02 3.4573000000000000e+00 1.3355770000000000e+01 3.6023800000000001e+00 0 0 0
3132 444 4 0.0000000000000000e+00 3.4729999999999999e+00 1.3380500000000000e+01 0.0000000000000000e+00 0 0 0
3133 444 4 0.0000000000000000e+00 5.2898399999999999e+00 1.5197450000000000e+01 0.0000000000000000e+00 0 0 0
3158 444 4 -7.4069999999999997e-02 5.2428999999999997e+00 1.5158189999999999e+01 3.5816699999999999e+00 0 0 0
559 444 2 -8.2999999999999996e-01 2.2710276990501188e+00 9.9793256862434401e+00 6.9362139309828281e+00 1 2 0
561 444 1 4.1499999999999998e-01 1.9364937210138808e+00 1.0874988099716354e+01 6.8903040692846691e+00 1 2 0
560 444 1 4.1499999999999998e-01 1.8290894051772066e+00 9.5211428706073136e+00 6.2213777287983065e+00 1 2 0
784 444 2 -8.2999999999999996e-01 4.2191170520973627e+00 1.3643262985569431e+01 6.9195856431146128e+00 0 3 0
1141 444 2 -8.2999999999999996e-01 1.4609822823851257e+00 1.2503532037773956e+01 6.8580919318167686e+00 0 -4 0
1143 444 1 4.1499999999999998e-01 2.3106059042828417e+00 1.2597292826841294e+01 6.4273004643949392e+00 0 -4 0
1142 444 1 4.1499999999999998e-01 8.9657289139754748e-01 1.3137925394144268e+01 6.4162553402503892e+00 0 -4 0
786 444 1 4.1499999999999998e-01 5.0533841399147059e+00 1.3313388128095982e+01 6.5857996881496197e+00 0 3 0
785 444 1 4.1499999999999998e-01 3.8195397336106574e+00 1.4086416423739072e+01 6.1711306376728690e+00 0 3 0
2649 444 1 4.1499999999999998e-01 4.7584040850800697e+00 1.0095263460034646e+01 7.0602851908350530e+00 0 3 0
1221 444 1 4.1499999999999998e-01 3.0700837010911304e+00 8.2680946313559982e+00 7.7295942049768716e+00 -2 1 0
340 444 2 -8.2999999999999996e-01 2.0376147076061688e+00 1.6226118578320914e+01 6.8169305181280766e+00 -6 0 0
2481 444 1 4.1499999999999998e-01 5.5879537812820534e-01 1.6150733507602709e+01 7.5253542231932311e+00 -4 -2 0
1970 444 1 4.1499999999999998e-01 3.4083104161041128e-01 1.2853157372469859e+01 8.3662621993773012e+00 -1 4 0
1305 444 1 4.1499999999999998e-01 1.7858877121472352e+00 1.5737939419698794e+01 1.5724522352206963e+01 0 -1 0
2165 444 1 4.1499999999999998e-01 2.0999752081106031e+00 1.5541309443650668e+01 1.3324479447323505e+01 3 -3 0
32 444 1 4.1499999999999998e-01 1.9518724133756620e+00 9.6062155105052405e+00 1.2102765593771791e+01 1 1 0
909 444 1 4.1499999999999998e-01 1.9341991147733726e+00 1.3446538807361149e+01 1.1611195786742813e+01 -1 -3 0
908 444 1 4.1499999999999998e-01 1.8914212371090338e+00 1.2272811242325750e+01 1.0655984366562784e+01 -1 -3 0
2797 444 2 -8.2999999999999996e-01 4.1204499829557806e+00 1.3723602071794375e+01 1.2491930750354891e+01 0 4 0
29 444 2 -8.2999999999999996e-01 2.2521326833846640e+00 9.8972615327238902e+00 1.2963793029591166e+01 1 1 0
1337 444 1 4.1499999999999998e-01 2.5598408282040395e+00 1.0656384676254786e+01 9.7418511885252528e+00 1 -2 0
1906 444 2 -8.2999999999999996e-01 1.5961023912215337e+00 8.9049735456492289e+00 1.0113974761841201e+01 -1 1 0
2982 444 1 4.1499999999999998e-01 4.8990137816637880e+00 1.1000578331179698e+01 1.4751855577248142e+01 -2 0 0
2090 444 1 4.1499999999999998e-01 4.0341886396041424e+00 1.0291246240117452e+01 1.2921623343200793e+01 -1 5 0
2089 444 2 -8.2999999999999996e-01 4.8705075305145389e+00 1.0647703227901717e+01 1.3221191193306140e+01 -1 5 0
2980 444 2 -8.2999999999999996e-01 4.6860883772338013e+00 1.1267881939135250e+01 1.5645971567362299e+01 -2 0 0
2799 444 1 4.1499999999999998e-01 3.4328151577124686e+00 1.4389068798293300e+01 1.2468580718210555e+01 0 4 0
1264 444 2 -8.2999999999999996e-01 3.1501616329538851e+00 1.3916368170532404e+01 9.5145707208521415e+00 3 1 0
2798 444 1 4.1499999999999998e-01 4.5088060825927672e+00 1.3749016111972631e+01 1.1617421870128076e+01 0 4 0
31 444 1 4.1499999999999998e-01 1.4582991991687777e+00 1.0198936299697603e+01 1.3405440858618499e+01 1 1 0
1266 444 1 4.1499999999999998e-01 3.1164315896187191e+00 1.2970932816833690e+01 9.3688099786159320e+00 3 1 0
1265 444 1 4.1499999999999998e-01 3.4243831702033209e+00 1.4279397721528973e+01 8.6724044868466716e+00 3 1 0
1336 444 2 -8.2999999999999996e-01 2.9253983262697782e+00 1.1400174039549292e+01 9.2629174901649129e+00 1 -2 0
1907 444 1 4.1499999999999998e-01 8.1721816156689253e-01 8.5661642292392468e+00 9.6726358438392737e+00 -1 1 0
2981 444 1 4.1499999999999998e-01 3.9033684316273982e+00 1.1811147266429414e+01 1.5554079695641486e+01 -2 0 0
1814 444 1 4.1499999999999998e-01 1.0729110103823165e+00 8.3804471367095292e+00 1.5359875414012317e+01 2 -1 0
2164 444 2 -8.2999999999999996e-01 2.3561306991158388e+00 1.5706332979182063e+01 1.2417074680416654e+01 3 -3 0
1338 444 1 4.1499999999999998e-01 2.6712133080840088e+00 1.1247871503286053e+01 8.3527382560705838e+00 1 -2 0
1277 444 1 4.1499999999999998e-01 2.1097180025012743e+00 1.3732762676437014e+01 1.5719653638614419e+01 1 2 0
1276 444 2 -8.2999999999999996e-01 2.4031503445217823e+00 1.2896422118502516e+01 1.6081128537040605e+01 1 2 0
752 444 1 4.1499999999999998e-01 4.7608118005035394e+00 8.4334922590632164e+00 9.6778955736458556e+00 0 2 0
7 444 3 1.0000000000000000e+00 1.2058453355928789e+00 1.5569242788292350e+01 1.0083140516654277e+01 -2 2 0
907 444 2 -8.2999999999999996e-01 1.3644539162445861e+00 1.2741840622452179e+01 1.1302937976298796e+01 -1 -3 0
2091 444 1 4.1499999999999998e-01 4.8010129551078089e+00 1.1589005458025852e+01 1.3061966901455111e+01 -1 5 0
1908 444 1 4.1499999999999998e-01 2.3266883000525933e+00 8.6150171588851148e+00 9.5677131659433954e+00 -1 1 0
1815 444 1 4.1499999999999998e-01 2.5766777894445703e+00 8.5417505463004240e+00 1.5292334248469405e+01 2 -1 0
770 444 1 4.1499999999999998e-01 3.8169010031737116e-02 1.0950732468052195e+01 1.5452649178611887e+01 0 1 0
135 444 1 4.1499999999999998e-01 5.3971061111154350e+00 1.4288908061722630e+01 1.3539422544091355e+01 0 2 0
1303 444 2 -8.2999999999999996e-01 1.2808495844586945e+00 1.5253584118436947e+01 1.5071400270379183e+01 0 -1 0
1304 444 1 4.1499999999999998e-01 3.7147492387915887e-01 1.5500328939623028e+01 1.5239885355451120e+01 0 -1 0
751 444 2 -8.2999999999999996e-01 5.2087610019300579e+00 8.5053872202506327e+00 1.0520750864718392e+01 0 2 0
917 444 1 4.1499999999999998e-01 3.3636299676654353e+00 1.6295429404317325e+01 2.0952921717655904e+01 0 2 0
2659 444 2 -8.2999999999999996e-01 7.7338535449372370e-01 8.9637174667548898e+00 2.1377711683499356e+01 3 -1 0
1696 444 2 -8.2999999999999996e-01 5.1742889936880632e+00 8.6535798674692703e+00 1.6540445201880598e+01 1 -1 0
2660 444 1 4.1499999999999998e-01 1.1957417401554775e+00 8.2093382778158084e+00 2.1788514488198651e+01 3 -1 0
1827 444 1 4.1499999999999998e-01 5.3607641429690611e+00 1.1898510334473549e+01 1.9885895621135685e+01 4 2 0
2408 444 1 4.1499999999999998e-01 5.4038436105605525e+00 1.0630227910034700e+01 2.3387521932809079e+01 -2 -6 0
110 444 1 4.1499999999999998e-01 1.2399132610396437e+00 1.1739340024678341e+01 1.8589847722627223e+01 -2 -2 0
918 444 1 4.1499999999999998e-01 4.3327393608714120e+00 1.5983312963685616e+01 1.9832517515092199e+01 0 2 0
1824 444 1 4.1499999999999998e-01 4.3882185354090302e+00 1.5800726493716301e+01 1.7040510684532897e+01 4 1 0
1267 444 2 -8.2999999999999996e-01 1.0669140993154680e+00 1.4930487218676371e+01 1.9589254821429357e+01 -4 3 0
2661 444 1 4.1499999999999998e-01 1.2244083006658540e-01 8.5828096706090200e+00 2.0788294834419176e+01 3 -1 0
532 444 2 -8.2999999999999996e-01 1.4908249358286108e+00 1.3831336745393939e+01 2.2121854176620065e+01 1 -1 0
875 444 1 4.1499999999999998e-01 3.9166269646124192e+00 1.4737606855545389e+01 2.2674917255729831e+01 -2 6 0
1278 444 1 4.1499999999999998e-01 2.3383883999931565e+00 1.3008922332630375e+01 1.7029485814087298e+01 1 2 0
1826 444 1 4.1499999999999998e-01 4.4885915594301427e+00 1.1348883419352815e+01 2.0994552690025436e+01 4 2 0
874 444 2 -8.2999999999999996e-01 3.9482218496126880e+00 1.3783614647697309e+01 2.2746558683443418e+01 -2 6 0
111 444 1 4.1499999999999998e-01 2.7320215330143744e+00 1.1885870360195911e+01 1.8799698040215578e+01 -2 -2 0
1927 444 2 -8.2999999999999996e-01 2.8811768679544247e+00 9.3534339955779746e+00 1.9536907917419818e+01 0 -4 0
1928 444 1 4.1499999999999998e-01 3.4563961586565837e+00 1.0103930364917415e+01 1.9685603673263792e+01 0 -4 0
534 444 1 4.1499999999999998e-01 9.4702832139980031e-01 1.3640471669375444e+01 2.2886110449711076e+01 1 -1 0
876 444 1 4.1499999999999998e-01 3.0887249605468776e+00 1.3491552942236892e+01 2.2442919187321067e+01 -2 6 0
1268 444 1 4.1499999999999998e-01 1.9751821245088936e+00 1.5232099493861043e+01 1.9571617373799359e+01 -4 3 0
1929 444 1 4.1499999999999998e-01 2.1288908655448648e+00 9.5109014602661031e+00 2.0107435901691069e+01 0 -4 0
1269 444 1 4.1499999999999998e-01 1.0931932911072906e+00 1.4065770118757948e+01 1.9179614081872252e+01 -4 3 0
1825 444 2 -8.2999999999999996e-01 4.7834602640285491e+00 1.1166332620655091e+01 2.0102386929702469e+01 4 2 0
109 444 2 -8.2999999999999996e-01 1.9183311138058783e+00 1.2389286557167759e+01 1.8773017018910902e+01 -2 -2 0
533 444 1 4.1499999999999998e-01 1.0318278498002373e+00 1.4540571888550174e+01 2.1671810706379187e+01 1 -1 0
1697 444 1 4.1499999999999998e-01 4.8183017283093577e+00 9.5043746549473003e+00 1.6284216531431177e+01 1 -1 0
216 444 1 4.1499999999999998e-01 4.8671989437110845e+00 8.8252267749092859e+00 2.1929434752624505e+01 -4 -1 0
916 444 2 -8.2999999999999996e-01 3.4000618262577724e+00 1.5986205743762335e+01 2.0047777542613524e+01 0 2 0
953 444 1 4.1499999999999998e-01 4.3195571865281632e+00 1.2349149888336276e+01 2.4070358220693524e+01 -2 2 0
382 444 2 -8.2999999999999996e-01 5.4420071328530417e+00 1.3588533902576877e+01 1.6705299648412346e+01 0 -2 0
383 444 1 4.1499999999999998e-01 5.4205817072224534e+00 1.2670179395881874e+01 1.6436229463275414e+01 0 -2 0
1088 444 1 4.1499999999999998e-01 1.3493767683171662e+00 1.1673511469469110e+01 3.1236041558708486e+01 1 2 0
1881 444 1 4.1499999999999998e-01 4.5474140608838640e+00 8.6798064754273625e+00 2.8440502349141465e+01 -1 2 0
1870 444 2 -8.2999999999999996e-01 2.6363240472704006e+00 1.5743892532884260e+01 3.2246039980461589e+01 4 -1 0
1857 444 1 4.1499999999999998e-01 5.1711810713738835e+00 1.2757454087266362e+01 3.0581676947082887e+01 -6 -1 0
1197 444 1 4.1499999999999998e-01 4.4832294309565803e+00 9.5611388037732539e+00 3.0810679218511396e+01 3 3 0
1195 444 2 -8.2999999999999996e-01 4.9760764330512943e+00 9.4810182147249549e+00 2.9994030937362695e+01 3 3 0
2836 444 2 -8.2999999999999996e-01 3.4670341944554854e+00 1.5022458814946642e+01 2.6269353808636826e+01 -4 1 0
1879 444 2 -8.2999999999999996e-01 4.5510460531034882e+00 8.5315065240899770e+00 2.7494867302729038e+01 -1 2 0
461 444 1 4.1499999999999998e-01 1.7898222448565380e+00 1.1041956616643894e+01 2.4747404999011842e+01 0 0 0
1405 444 2 -8.2999999999999996e-01 4.9369885615965581e+00 1.2936448865878443e+01 2.7168305472042444e+01 0 -6 0
462 444 1 4.1499999999999998e-01 3.2902239596187783e+00 1.1029096774120344e+01 2.4948713607749209e+01 0 0 0
460 444 2 -8.2999999999999996e-01 2.5083665024524091e+00 1.0486055836668120e+01 2.5048902413699746e+01 0 0 0
2087 444 1 4.1499999999999998e-01 2.1431985901396866e-01 8.5152906947327835e+00 3.0778643624416350e+01 -2 -8 0
2687 444 1 4.1499999999999998e-01 3.1447405079446371e+00 8.9112872626318076e+00 2.4773873082440232e+01 1 -2 0
2838 444 1 4.1499999999999998e-01 3.9789000776130705e+00 1.4245380757559078e+01 2.6493798375764381e+01 -4 1 0
1752 444 1 4.1499999999999998e-01 4.0240769796423121e+00 1.5750529358861421e+01 2.7760090828474681e+01 -1 -1 0
1087 444 2 -8.2999999999999996e-01 1.0460021667281010e+00 1.1154409140363915e+01 3.1980842470009186e+01 1 2 0
1407 444 1 4.1499999999999998e-01 4.6976560526491316e+00 1.2930710561827073e+01 2.8095084263765838e+01 0 -6 0
2137 444 2 -8.2999999999999996e-01 1.0913862813786301e-01 1.4627315750359914e+01 3.0461588207604425e+01 2 0 0
1659 444 1 4.1499999999999998e-01 9.3231502774420960e-01 1.2901234195595888e+01 2.5184622316452256e+01 -1 3 0
1658 444 1 4.1499999999999998e-01 1.0373592545458110e+00 1.4300476237611276e+01 2.4616306616939166e+01 -1 3 0