LAMMPS data file via write_data, version 11 Aug 2017, timestep = 1000000

3570 atoms
11 atom types
2024 bonds
5 bond types
1018 angles
5 angle types
12 dihedrals
4 dihedral types
9 impropers
1 improper types

0.0000000000000000e+00 3.2704500000000003e+01 xlo xhi
0.0000000000000000e+00 3.2704500000000003e+01 ylo yhi
0.0000000000000000e+00 8.0000000000000000e+01 zlo zhi

Masses

1 1.0079
2 15.9994
3 39.0983
4 63.546
5 12.011
6 1.0079
7 12.011
8 15.9994
9 15.9994
10 15.9994
11 1.0079

Bond Coeffs # harmonic

1 450 0.9572
2 570 1.229
3 450 1.364
4 570 1.229
5 553 0.945

Angle Coeffs # harmonic

1 100 123.32
2 85 124
3 55 104.52
4 35 113
5 100 123.32

Dihedral Coeffs # charmm

1 0.922 1 180 0
2 3.741 2 0 0
3 0.922 1 0 0
4 3.741 2 180 0

Improper Coeffs # umbrella

1 21 0

Atoms # full

3049 444 4 -7.4069999999999997e-02 1.6619999999999999e+00 6.6452000000000000e-01 3.5823499999999999e+00 0 0 0
3051 444 4 0.0000000000000000e+00 1.6560500000000000e+00 2.4790000000000001e+00 1.8169999999999999e+00 0 0 0
3060 444 4 0.0000000000000000e+00 1.6560500000000000e+00 6.6205000000000003e-01 0.0000000000000000e+00 0 0 0
852 444 1 4.1499999999999998e-01 1.2695446830728820e+00 3.4962505466757379e+00 7.1758113340243579e+00 6 1 0
883 444 2 -8.2999999999999996e-01 1.3191098931935348e+00 4.9925765006499101e-01 7.0678822485893855e+00 -1 0 0
884 444 1 4.1499999999999998e-01 6.1703672319907421e-01 5.3729119626396848e-01 6.4183602687221564e+00 -1 0 0
885 444 1 4.1499999999999998e-01 1.9863062393341677e+00 1.0997811073541779e+00 6.7355375038093461e+00 -1 0 0
2399 444 1 4.1499999999999998e-01 9.8628906017750095e-01 1.5546233776064096e+00 8.7127384725598844e+00 4 1 0
749 444 1 4.1499999999999998e-01 5.7933109627077883e-01 3.2251612722067131e+00 1.4226244058402512e+01 4 3 0
2400 444 1 4.1499999999999998e-01 9.1335251887491842e-01 2.9747080713228957e+00 9.2322918466237667e+00 4 1 0
748 444 2 -8.2999999999999996e-01 6.1823335661897916e-01 3.8680493859953904e+00 1.4934349638685925e+01 4 3 0
2398 444 2 -8.2999999999999996e-01 4.8923007394764872e-01 2.1196242231224489e+00 9.3042948315058176e+00 4 1 0
54 444 1 4.1499999999999998e-01 7.0379167751813310e-01 2.6875884461584936e+00 1.1699695739365167e+01 1 2 0
52 444 2 -8.2999999999999996e-01 3.3516793947009432e-01 3.3972944413973862e+00 1.2225686592072789e+01 1 2 0
2920 444 2 -8.2999999999999996e-01 4.6118554291067437e-01 2.4833540150162898e+00 1.7295382409650827e+01 9 1 0
2921 444 1 4.1499999999999998e-01 4.4798944443521432e-01 2.9538769328217982e+00 1.6461915475749944e+01 9 1 0
1130 444 1 4.1499999999999998e-01 1.2337864759535933e-01 1.0973267430506353e+00 1.9008530792397448e+01 2 -1 0
3066 444 4 0.0000000000000000e+00 1.6560500000000000e+00 4.2959500000000004e+00 0.0000000000000000e+00 0 0 0
3067 444 4 -7.4069999999999997e-02 1.6662500000000000e+00 4.2895599999999998e+00 3.5629800000000000e+00 0 0 0
3069 444 4 0.0000000000000000e+00 1.6560500000000000e+00 6.1128000000000000e+00 1.8169999999999999e+00 0 0 0
3086 444 4 0.0000000000000000e+00 1.6560500000000000e+00 7.9297500000000003e+00 0.0000000000000000e+00 0 0 0
3087 444 4 -7.4069999999999997e-02 1.6710799999999999e+00 7.9411600000000000e+00 3.5645099999999998e+00 0 0 0
848 444 2 -8.2999999999999996e-01 5.5607321006567689e-01 4.0962978247552817e+00 6.9587084383606248e+00 6 1 0
849 444 1 4.1499999999999998e-01 9.8450169143176192e-01 4.9429344967277693e+00 6.8326617238707659e+00 6 1 0
2709 444 1 4.1499999999999998e-01 2.0081122238380642e+00 7.1905696873011262e+00 6.9021874981318492e+00 -2 -2 0
285 444 1 4.1499999999999998e-01 3.1372180104146674e-01 6.6033505756778670e+00 1.5590457163723626e+01 2 -7 0
353 444 1 4.1499999999999998e-01 7.5684017636241396e-01 7.2110516229159938e+00 1.3345269322862473e+01 -3 -1 0
1539 444 1 4.1499999999999998e-01 1.5424914620599248e+00 6.3687819055096755e+00 1.2166290263783360e+01 7 -5 0
53 444 1 4.1499999999999998e-01 6.0808230526154505e-01 4.1965713157566782e+00 1.1775234729126687e+01 1 2 0
1537 444 2 -8.2999999999999996e-01 1.3620457061167595e+00 5.8919350890818603e+00 1.1356174028458152e+01 7 -5 0
1538 444 1 4.1499999999999998e-01 1.4996346060153272e+00 6.5368549094252266e+00 1.0662358721433735e+01 7 -5 0
352 444 2 -8.2999999999999996e-01 3.4496483507475834e-01 6.5237543942275886e+00 1.3868922971891763e+01 -3 -1 0
385 444 2 -8.2999999999999996e-01 1.7966356616848311e+00 7.8531371749107048e+00 9.4829107367369794e+00 2 4 0
750 444 1 4.1499999999999998e-01 4.2849168123108100e-01 4.7046279449289790e+00 1.4509653769737305e+01 4 3 0
1448 444 1 4.1499999999999998e-01 2.0165366594684815e+00 4.6098900871287638e+00 1.0517761665522691e+01 2 -3 0
38 444 1 4.1499999999999998e-01 1.0906883337252028e-01 6.4392730932821598e+00 1.8818161960423247e+01 3 -3 0
37 444 2 -8.2999999999999996e-01 2.4947904732122622e-01 6.0802420321832216e+00 1.9694297708950625e+01 3 -3 0
39 444 1 4.1499999999999998e-01 1.0671982909222419e+00 6.4807298687471411e+00 1.9989556608131089e+01 3 -3 0
284 444 1 4.1499999999999998e-01 6.3239435770421770e-01 5.5012871619329964e+00 1.6578282867002176e+01 2 -7 0
283 444 2 -8.2999999999999996e-01 2.5217284089345138e-01 6.3777044541447978e+00 1.6518642902263675e+01 2 -7 0
3089 444 4 0.0000000000000000e+00 1.6560500000000000e+00 9.7467000000000006e+00 1.8169999999999999e+00 0 0 0
3107 444 4 -7.4069999999999997e-02 1.6619999999999999e+00 1.1566020000000000e+01 3.5823499999999999e+00 0 0 0
3118 444 4 0.0000000000000000e+00 1.6560500000000000e+00 1.1563549999999999e+01 0.0000000000000000e+00 0 0 0
2745 444 1 4.1499999999999998e-01 1.5560844215782452e+00 1.0081948150582511e+01 6.9351160982087281e+00 -2 -3 0
2744 444 1 4.1499999999999998e-01 6.6290145746108531e-01 8.9057820272191712e+00 6.6023200309664878e+00 -2 -3 0
67 444 2 -8.2999999999999996e-01 1.6092882823518511e+00 1.1873805008553742e+01 6.7411218208226424e+00 -2 1 0
68 444 1 4.1499999999999998e-01 7.0210300843896434e-01 1.1890278669027492e+01 6.4362028962520492e+00 -2 1 0
2743 444 2 -8.2999999999999996e-01 1.3586963855940333e+00 9.1830629713949907e+00 7.1983207991093519e+00 -2 -3 0
746 444 1 4.1499999999999998e-01 9.2118234131000554e-01 8.8185521458528644e+00 1.1253758299031128e+01 -2 0 0
745 444 2 -8.2999999999999996e-01 5.6461465115831000e-01 8.5286027616619826e+00 1.2093414122322773e+01 -2 0 0
2046 444 1 4.1499999999999998e-01 1.7002239874554490e+00 1.1336484342262423e+01 1.0293571050398448e+01 2 1 0
387 444 1 4.1499999999999998e-01 1.4310690382934663e+00 8.2407111790776248e+00 8.6876868870678372e+00 2 4 0
1108 444 2 -8.2999999999999996e-01 2.1079528725284644e-01 1.2195802776982243e+01 1.0768398555546115e+01 -1 1 0
3024 444 3 1.0000000000000000e+00 1.1064433884499216e+00 1.1176857463276583e+01 1.2996411227058205e+01 2 3 0
1066 444 2 -8.2999999999999996e-01 1.9769375150709423e+00 8.8123436569904214e+00 1.6975314922711078e+01 2 3 0
1440 444 1 4.1499999999999998e-01 1.6154308207885564e+00 1.0394264910523999e+01 1.8256565598972106e+01 -7 -1 0
1438 444 2 -8.2999999999999996e-01 1.7729753944399660e+00 1.0925429678130286e+01 1.9037127272121321e+01 -7 -1 0
1067 444 1 4.1499999999999998e-01 1.4674929147821121e+00 8.3672779081650734e+00 1.6298103718198465e+01 2 3 0
3109 444 4 0.0000000000000000e+00 1.6560500000000000e+00 1.3380500000000000e+01 1.8169999999999999e+00 0 0 0
3124 444 4 0.0000000000000000e+00 1.6560500000000000e+00 1.5197450000000000e+01 0.0000000000000000e+00 0 0 0
3125 444 4 -7.4069999999999997e-02 1.6662500000000000e+00 1.5191060000000000e+01 3.5629800000000000e+00 0 0 0
69 444 1 4.1499999999999998e-01 1.8346387276067602e+00 1.2794593511940285e+01 6.8737791241789941e+00 -2 1 0
1110 444 1 4.1499999999999998e-01 4.3690662394882546e-01 1.2870256509057857e+01 1.0127914873359527e+01 -1 1 0
2047 444 2 -8.2999999999999996e-01 9.0097710583394353e-01 1.3997223340490923e+01 8.8830513067105183e+00 -4 -1 0
1729 444 2 -8.2999999999999996e-01 6.2642601723520108e-01 1.5186070939229204e+01 1.4274229209303122e+01 4 -1 0
2599 444 2 -8.2999999999999996e-01 1.4659477601542150e+00 1.5728332910305410e+01 1.1210826007258444e+01 3 -1 0
2048 444 1 4.1499999999999998e-01 2.5069948331909081e-01 1.4140214452769627e+01 8.1953558908882744e+00 -4 -1 0
2049 444 1 4.1499999999999998e-01 1.7021620219316791e+00 1.4394897048086019e+01 8.5421838613867411e+00 -4 -1 0
2600 444 1 4.1499999999999998e-01 8.8736897306706808e-01 1.6187771384553745e+01 1.1819427518748110e+01 3 -1 0
2601 444 1 4.1499999999999998e-01 8.7633086457545095e-01 1.5349382946543743e+01 1.0558919911222985e+01 3 -1 0
1731 444 1 4.1499999999999998e-01 1.2679548208712048e+00 1.5606778705691696e+01 1.4846660768288222e+01 4 -1 0
1730 444 1 4.1499999999999998e-01 2.3763299076506347e-01 1.5906950241926030e+01 1.3778845543859319e+01 4 -1 0
701 444 1 4.1499999999999998e-01 7.1575167517195237e-01 1.2983904163632406e+01 1.9057933251562336e+01 0 3 0
700 444 2 -8.2999999999999996e-01 4.1869181384239784e-02 1.3165046542098754e+01 1.9713144735409607e+01 0 3 0
3127 444 4 0.0000000000000000e+00 1.6560500000000000e+00 1.7014299999999999e+01 1.8169999999999999e+00 0 0 0
3144 444 4 0.0000000000000000e+00 1.6560500000000000e+00 1.8831250000000001e+01 0.0000000000000000e+00 0 0 0
3145 444 4 -7.4069999999999997e-02 1.6710799999999999e+00 1.8842659999999999e+01 3.5645099999999998e+00 0 0 0
908 444 1 4.1499999999999998e-01 1.8043816269755428e+00 2.0164262286248970e+01 6.1583087692929928e+00 2 -4 0
955 444 2 -8.2999999999999996e-01 9.5061550615092494e-01 1.9500518087253113e+01 1.2049226149300351e+01 1 4 0
956 444 1 4.1499999999999998e-01 4.7969159012409490e-01 1.8718884772260587e+01 1.2338211518516632e+01 1 4 0
918 444 1 4.1499999999999998e-01 1.7861640060564343e+00 1.6819046187470924e+01 9.8931124238612593e+00 -2 3 0
916 444 2 -8.2999999999999996e-01 1.5353733315923581e+00 1.7691550058287874e+01 9.5896765790054204e+00 -2 3 0
957 444 1 4.1499999999999998e-01 1.5538135117270255e+00 1.9182611365836966e+01 1.1377422753354484e+01 1 4 0
942 444 1 4.1499999999999998e-01 8.0438595171514748e-03 2.0338706970964168e+01 1.4564250470366547e+01 -1 0 0
1622 444 1 4.1499999999999998e-01 1.7002151222838693e+00 1.9235263310887358e+01 1.7052396107009219e+01 1 -3 0
2941 444 2 -8.2999999999999996e-01 1.3752061739194293e-01 1.9768218899834238e+01 1.7850199568207760e+01 0 -1 0
3147 444 4 0.0000000000000000e+00 1.6560500000000000e+00 2.0648199999999999e+01 1.8169999999999999e+00 0 0 0
3165 444 4 -7.4069999999999997e-02 1.6619999999999999e+00 2.2467520000000000e+01 3.5823499999999999e+00 0 0 0
3167 444 4 0.0000000000000000e+00 1.6560500000000000e+00 2.4282000000000000e+01 1.8169999999999999e+00 0 0 0
3176 444 4 0.0000000000000000e+00 1.6560500000000000e+00 2.2465050000000002e+01 0.0000000000000000e+00 0 0 0
907 444 2 -8.2999999999999996e-01 1.8645814189273735e+00 2.0811728913084224e+01 6.8607294787971318e+00 2 -4 0
909 444 1 4.1499999999999998e-01 1.0101398720180559e+00 2.0779210112017875e+01 7.2909669203119618e+00 2 -4 0
2934 444 1 4.1499999999999998e-01 4.1248274283270381e-01 2.3809808311850617e+01 6.3561895489256006e+00 -2 0 0
940 444 2 -8.2999999999999996e-01 5.8442643238615621e-01 2.1033200942977736e+01 1.4245355954912034e+01 -1 0 0
941 444 1 4.1499999999999998e-01 1.0344165382443675e+00 2.0645775951388249e+01 1.3494594544043382e+01 -1 0 0
869 444 1 4.1499999999999998e-01 7.6047013587026291e-01 2.2301240963962062e+01 1.5620037283869900e+01 1 1 0
868 444 2 -8.2999999999999996e-01 1.3450375525781366e+00 2.2999411854018909e+01 1.5915115304536091e+01 1 1 0
855 444 1 4.1499999999999998e-01 1.5135072745967710e+00 2.2022742250518228e+01 1.8993606619480644e+01 -2 0 0
2588 444 1 4.1499999999999998e-01 2.3748796270200634e-01 2.4262823620626211e+01 1.6281832830722447e+01 1 4 0
3182 444 4 0.0000000000000000e+00 1.6560500000000000e+00 2.6098949999999999e+01 0.0000000000000000e+00 0 0 0
3183 444 4 -7.4069999999999997e-02 1.6662500000000000e+00 2.6092559999999999e+01 3.5629800000000000e+00 0 0 0
3185 444 4 0.0000000000000000e+00 1.6560500000000000e+00 2.7915800000000001e+01 1.8169999999999999e+00 0 0 0
2967 444 1 4.1499999999999998e-01 1.5709774643970928e+00 2.8461992482177500e+01 6.2732982768018530e+00 -1 1 0
2790 444 1 4.1499999999999998e-01 4.8776453472976822e-01 2.5513841149448879e+01 9.2879505592679461e+00 -3 -3 0
3021 444 3 1.0000000000000000e+00 1.6286898519181281e+00 2.5915679084058304e+01 1.2163223979766094e+01 -1 -3 0
2788 444 2 -8.2999999999999996e-01 1.3697347523241841e+00 2.5525179171677809e+01 9.6597467778432442e+00 -3 -3 0
2789 444 1 4.1499999999999998e-01 1.9316607042205158e+00 2.5204330335939503e+01 8.9543904341886957e+00 -3 -3 0
732 444 1 4.1499999999999998e-01 1.1644357130162282e+00 2.6839224977968826e+01 1.4584619484809190e+01 -2 -6 0
473 444 1 4.1499999999999998e-01 6.6095357300396596e-01 2.7534441459214062e+01 1.7258379703655297e+01 -4 0 0
3202 444 4 0.0000000000000000e+00 1.6560500000000000e+00 2.9732749999999999e+01 0.0000000000000000e+00 0 0 0
3203 444 4 -7.4069999999999997e-02 1.6710799999999999e+00 2.9744160000000001e+01 3.5645099999999998e+00 0 0 0
3205 444 4 0.0000000000000000e+00 1.6560500000000000e+00 3.1549700000000001e+01 1.8169999999999999e+00 0 0 0
2357 444 1 4.1499999999999998e-01 9.0337163541715304e-01 3.1715167882256491e+01 7.9653781555669703e+00 4 1 0
2966 444 1 4.1499999999999998e-01 1.4161782384289368e+00 2.9645345014583750e+01 7.2047539202235376e+00 -1 1 0
2965 444 2 -8.2999999999999996e-01 2.0295401442775733e+00 2.8954610104288026e+01 6.9539450685502358e+00 -1 1 0
2356 444 2 -8.2999999999999996e-01 3.9902465746474469e-01 3.0902957608677653e+01 8.0120778437320350e+00 4 1 0
1841 444 1 4.1499999999999998e-01 1.8306469550806130e+00 3.1489906295048925e+01 1.1110652594151521e+01 -3 1 0
1281 444 1 4.1499999999999998e-01 6.4064760818069177e-01 3.2326743262125149e+01 1.5851307640937964e+01 -5 -1 0
1431 444 1 4.1499999999999998e-01 5.0265017873941553e-01 2.9746112795020260e+01 1.2968870905242344e+01 0 -2 0
1840 444 2 -8.2999999999999996e-01 1.9044165949294214e+00 3.1902239323278849e+01 1.1971333435152419e+01 -3 1 0
1280 444 1 4.1499999999999998e-01 2.0354803317777712e+00 3.2093519875217638e+01 1.5310989191461918e+01 -5 -1 0
2825 444 1 4.1499999999999998e-01 1.8347858530725996e+00 3.0461123679075062e+01 1.6919274282107615e+01 -5 -3 0
1703 444 1 4.1499999999999998e-01 1.3031401285547357e+00 2.9620075167682657e+01 1.9674027409597386e+01 4 -1 0
1279 444 2 -8.2999999999999996e-01 1.4414682434712431e+00 3.1827983050158799e+01 1.6013037469772154e+01 -5 -1 0
3050 444 4 0.0000000000000000e+00 3.4729999999999999e+00 6.6205000000000003e-01 1.8169999999999999e+00 0 0 0
3074 444 4 -7.4069999999999997e-02 3.4770500000000002e+00 2.4624700000000002e+00 3.5860200000000000e+00 0 0 0
3075 444 4 0.0000000000000000e+00 3.4729999999999999e+00 2.4790000000000001e+00 0.0000000000000000e+00 0 0 0
2263 444 2 -8.2999999999999996e-01 2.7968583240105760e+00 2.8604586934415415e+00 7.2205993758447464e+00 -2 -2 0
2265 444 1 4.1499999999999998e-01 3.6866109264850007e+00 2.8159082549580656e+00 7.5707251775336468e+00 -2 -2 0
2264 444 1 4.1499999999999998e-01 2.9126894183962846e+00 3.0962348949520826e+00 6.3001511844143323e+00 -2 -2 0
1271 444 1 4.1499999999999998e-01 2.9388842814612102e+00 2.4326284789144985e+00 1.0850914070316845e+01 -2 6 0
1842 444 1 4.1499999999999998e-01 2.0707170514379469e+00 1.2109480501575927e-01 1.1781620586319393e+01 -3 2 0
1270 444 2 -8.2999999999999996e-01 2.9926829881154426e+00 1.5259539305799370e+00 1.1153037972865622e+01 -2 6 0
1272 444 1 4.1499999999999998e-01 3.8244882934152291e+00 1.2056771114762073e+00 1.0804104509414838e+01 -2 6 0
1447 444 2 -8.2999999999999996e-01 2.4890996303372828e+00 3.8656748781606800e+00 1.0144854299992488e+01 2 -3 0
2350 444 2 -8.2999999999999996e-01 3.4357538832526213e+00 2.4421316906049970e+00 1.8521335192425809e+01 -2 5 0
2351 444 1 4.1499999999999998e-01 2.5529292450072356e+00 2.5659597834942534e+00 1.8172738556866467e+01 -2 5 0
2352 444 1 4.1499999999999998e-01 3.9953301939190062e+00 2.9681784126605657e+00 1.7950035964880620e+01 -2 5 0
74 444 1 4.1499999999999998e-01 3.5479152890934738e+00 1.3118461901552791e-01 1.8116996358111439e+01 -1 -1 0
3064 444 4 0.0000000000000000e+00 3.4729999999999999e+00 6.1128000000000000e+00 0.0000000000000000e+00 0 0 0
3065 444 4 -7.4069999999999997e-02 3.4744100000000002e+00 6.1123900000000004e+00 3.5719200000000000e+00 0 0 0
3068 444 4 0.0000000000000000e+00 3.4729999999999999e+00 4.2959500000000004e+00 1.8169999999999999e+00 0 0 0
3088 444 4 0.0000000000000000e+00 3.4729999999999999e+00 7.9297500000000003e+00 1.8169999999999999e+00 0 0 0
2707 444 2 -8.2999999999999996e-01 2.4144271567445532e+00 6.3426216632197390e+00 7.0814199273804324e+00 -2 -2 0
2708 444 1 4.1499999999999998e-01 3.1170193758792095e+00 6.2717887946819157e+00 6.4352165725671826e+00 -2 -2 0
832 444 2 -8.2999999999999996e-01 3.3572996192218376e+00 6.3372276164424042e+00 1.3610121606988162e+01 -2 -1 0
386 444 1 4.1499999999999998e-01 2.6872557201290999e+00 7.6007384483171352e+00 9.2393456129482878e+00 2 4 0
834 444 1 4.1499999999999998e-01 2.8600163701617021e+00 5.8334989006860045e+00 1.4254481297572365e+01 -2 -1 0
2184 444 1 4.1499999999999998e-01 3.8925815776671935e+00 7.9037217848129924e+00 1.3161752803234382e+01 -2 1 0
1449 444 1 4.1499999999999998e-01 3.2272303781339295e+00 4.2589691960290006e+00 9.6793282003573307e+00 2 -3 0
2950 444 2 -8.2999999999999996e-01 2.8099369149969906e+00 6.5089207439320775e+00 1.8318488269856331e+01 -2 0 0
2952 444 1 4.1499999999999998e-01 3.7121979627122186e+00 6.4148762759373721e+00 1.8013017269524799e+01 -2 0 0
2951 444 1 4.1499999999999998e-01 2.8924605918351678e+00 6.7304897159819763e+00 1.9246027454804317e+01 -2 0 0
1068 444 1 4.1499999999999998e-01 2.1825240864317021e+00 8.1265033792868557e+00 1.7610602658307382e+01 2 3 0
3084 444 4 0.0000000000000000e+00 3.4729999999999999e+00 9.7467000000000006e+00 0.0000000000000000e+00 0 0 0
3085 444 4 -7.4069999999999997e-02 3.4766800000000000e+00 9.7645400000000002e+00 3.5851299999999999e+00 0 0 0
3108 444 4 0.0000000000000000e+00 3.4729999999999999e+00 1.1563549999999999e+01 1.8169999999999999e+00 0 0 0
2634 444 1 4.1499999999999998e-01 3.7068325537284825e+00 9.2474461131895342e+00 7.2659555602455974e+00 -2 -5 0
899 444 1 4.1499999999999998e-01 3.5916360474000668e+00 1.1936812496422931e+01 6.2674712816082154e+00 -1 -3 0
2045 444 1 4.1499999999999998e-01 3.0142853653234662e+00 1.1181395991495021e+01 9.5579857374420705e+00 2 1 0
2044 444 2 -8.2999999999999996e-01 2.5922083915785237e+00 1.1005579116120106e+01 1.0398920916833413e+01 2 1 0
420 444 1 4.1499999999999998e-01 3.8530011097930923e+00 1.0982713307053668e+01 1.5108493221696163e+01 4 1 0
670 444 2 -8.2999999999999996e-01 2.2485039639912889e+00 1.1077997891664380e+01 1.5427120363574311e+01 2 0 0
671 444 1 4.1499999999999998e-01 2.1341840529051570e+00 1.2024186781906886e+01 1.5515944751569519e+01 2 0 0
1439 444 1 4.1499999999999998e-01 2.2166786265145206e+00 1.1707750340523623e+01 1.8709505833633344e+01 -7 -1 0
672 444 1 4.1499999999999998e-01 2.2995623542268993e+00 1.0756872375954753e+01 1.6327400140455111e+01 2 0 0
3126 444 4 0.0000000000000000e+00 3.4729999999999999e+00 1.5197450000000000e+01 1.8169999999999999e+00 0 0 0
3132 444 4 -7.4069999999999997e-02 3.4770500000000002e+00 1.3363970000000000e+01 3.5860200000000000e+00 0 0 0
3133 444 4 0.0000000000000000e+00 3.4729999999999999e+00 1.3380500000000000e+01 0.0000000000000000e+00 0 0 0
6 444 1 4.1499999999999998e-01 3.5105865994160417e+00 1.4759539304412748e+01 6.7882375570045355e+00 1 2 0
5 444 1 4.1499999999999998e-01 2.3393653175501274e+00 1.5717306512043734e+01 6.8413305169912402e+00 1 2 0
4 444 2 -8.2999999999999996e-01 2.5766131255825626e+00 1.4802522018297871e+01 6.9933671763423604e+00 1 2 0
1406 444 1 4.1499999999999998e-01 3.3212132104418566e+00 1.3142975408013413e+01 1.2357344941466703e+01 -3 0 0
879 444 1 4.1499999999999998e-01 3.1806030372596363e+00 1.5787061327328972e+01 1.1299640082556545e+01 2 1 0
2534 444 1 4.1499999999999998e-01 3.3233838368524173e+00 1.4970308650737556e+01 1.5277049285846985e+01 2 1 0
2535 444 1 4.1499999999999998e-01 2.7279534414487911e+00 1.3818930029369662e+01 1.4494945738494811e+01 2 1 0
2533 444 2 -8.2999999999999996e-01 3.0503201491474967e+00 1.4057033159846890e+01 1.5364209628566440e+01 2 1 0
1405 444 2 -8.2999999999999996e-01 2.5084373008625751e+00 1.3263898048987921e+01 1.2848268144673998e+01 -3 0 0
1407 444 1 4.1499999999999998e-01 2.0820309690157250e+00 1.4009891444166898e+01 1.2426482074675272e+01 -3 0 0
2791 444 2 -8.2999999999999996e-01 2.9519369781694329e+00 1.3070926511771725e+01 1.7927724006469024e+01 2 1 0
1522 444 2 -8.2999999999999996e-01 3.9973741532715850e+00 1.4328596463167182e+01 1.9986691826699332e+01 -1 1 0
2792 444 1 4.1499999999999998e-01 3.2900382103619190e+00 1.3707638965604731e+01 1.8557421099422850e+01 2 1 0
2793 444 1 4.1499999999999998e-01 3.0844958020562134e+00 1.3483728895003827e+01 1.7074345120993701e+01 2 1 0
3122 444 4 0.0000000000000000e+00 3.4729999999999999e+00 1.7014299999999999e+01 0.0000000000000000e+00 0 0 0
3123 444 4 -7.4069999999999997e-02 3.4744100000000002e+00 1.7013890000000000e+01 3.5719200000000000e+00 0 0 0
3146 444 4 0.0000000000000000e+00 3.4729999999999999e+00 1.8831250000000001e+01 1.8169999999999999e+00 0 0 0
124 444 2 -8.2999999999999996e-01 2.5766513289108546e+00 1.7468622590008724e+01 7.0780335137907571e+00 0 -5 0
126 444 1 4.1499999999999998e-01 2.4585363456311087e+00 1.8413880106989509e+01 6.9843893713620551e+00 0 -5 0
125 444 1 4.1499999999999998e-01 2.3967542134305013e+00 1.7116755972320803e+01 6.2062196193532015e+00 0 -5 0
1516 444 2 -8.2999999999999996e-01 3.7015151315850483e+00 2.0107111709555724e+01 8.8957497320867613e+00 3 4 0
1612 444 2 -8.2999999999999996e-01 3.5009022586848726e+00 1.6812544894216522e+01 1.5402147531234190e+01 6 -1 0
1614 444 1 4.1499999999999998e-01 2.9917911067830318e+00 1.7577286512839478e+01 1.5670862943575363e+01 6 -1 0
917 444 1 4.1499999999999998e-01 2.2059317460581074e+00 1.7924228939194126e+01 8.9474584109820388e+00 -2 3 0
1518 444 1 4.1499999999999998e-01 3.0373813713288871e+00 2.0289028893604687e+01 8.2308704904639036e+00 3 4 0
1623 444 1 4.1499999999999998e-01 3.1942731364656667e+00 1.9476232173016907e+01 1.7012141831880111e+01 1 -3 0
1621 444 2 -8.2999999999999996e-01 2.5081154351102160e+00 1.8914713999444114e+01 1.6651424442658062e+01 1 -3 0
2450 444 1 4.1499999999999998e-01 3.6342411163162436e+00 2.0255802241652898e+01 1.9411449258028025e+01 3 -5 0
1137 444 1 4.1499999999999998e-01 3.7851916734612878e+00 1.6627809489441329e+01 1.7988089943368916e+01 5 -1 0
3142 444 4 0.0000000000000000e+00 3.4729999999999999e+00 2.0648199999999999e+01 0.0000000000000000e+00 0 0 0
3143 444 4 -7.4069999999999997e-02 3.4766800000000000e+00 2.0666039999999999e+01 3.5851299999999999e+00 0 0 0
3166 444 4 0.0000000000000000e+00 3.4729999999999999e+00 2.2465050000000002e+01 1.8169999999999999e+00 0 0 0
3190 444 4 -7.4069999999999997e-02 3.4770500000000002e+00 2.4265470000000001e+01 3.5860200000000000e+00 0 0 0
3191 444 4 0.0000000000000000e+00 3.4729999999999999e+00 2.4282000000000000e+01 0.0000000000000000e+00 0 0 0
976 444 2 -8.2999999999999996e-01 3.0988016367340454e+00 2.3122177742487978e+01 7.1214494912766177e+00 2 0 0
977 444 1 4.1499999999999998e-01 3.6260888424317441e+00 2.3179791602576778e+01 6.3246553909685215e+00 2 0 0
978 444 1 4.1499999999999998e-01 2.4874096049727479e+00 2.2405128508369138e+01 6.9533064598550895e+00 2 0 0
1875 444 1 4.1499999999999998e-01 3.0883544792635864e+00 2.1620344796415921e+01 1.0065160680908194e+01 -4 2 0
2004 444 1 4.1499999999999998e-01 2.8196584233887352e+00 2.3092431552422646e+01 1.2018946279575735e+01 -3 0 0
1873 444 2 -8.2999999999999996e-01 3.1658159842376543e+00 2.2429309723534711e+01 1.0570935032699888e+01 -4 2 0
2003 444 1 4.1499999999999998e-01 2.4489083456058731e+00 2.2758783670309384e+01 1.3448323347711913e+01 -3 0 0
1874 444 1 4.1499999999999998e-01 3.4214277946410494e+00 2.3090768143006226e+01 9.9279980869738225e+00 -4 2 0
2002 444 2 -8.2999999999999996e-01 2.5698040598146923e+00 2.3496167329622050e+01 1.2850091345452547e+01 -3 0 0
2434 444 2 -8.2999999999999996e-01 4.0433328587086823e+00 2.0840786057056615e+01 1.3364883414965728e+01 3 1 0
2435 444 1 4.1499999999999998e-01 3.8421318888921658e+00 2.0524222646357714e+01 1.4245529660024600e+01 3 1 0
854 444 1 4.1499999999999998e-01 2.2946122392005943e+00 2.2945238544582800e+01 1.8082140081465162e+01 -2 0 0
2290 444 2 -8.2999999999999996e-01 3.8545603726146576e+00 2.2430649052767397e+01 1.6915669140153600e+01 0 -2 0
853 444 2 -8.2999999999999996e-01 2.2147687211827578e+00 2.2674244284367806e+01 1.8996699638787611e+01 -2 0 0
870 444 1 4.1499999999999998e-01 2.1288746308869944e+00 2.2542933574880255e+01 1.6220828072932555e+01 1 1 0
2291 444 1 4.1499999999999998e-01 4.0274182568275938e+00 2.1807076970566648e+01 1.7621013484297780e+01 0 -2 0
3180 444 4 0.0000000000000000e+00 3.4729999999999999e+00 2.7915800000000001e+01 0.0000000000000000e+00 0 0 0
3181 444 4 -7.4069999999999997e-02 3.4744100000000002e+00 2.7915389999999999e+01 3.5719200000000000e+00 0 0 0
3184 444 4 0.0000000000000000e+00 3.4729999999999999e+00 2.6098949999999999e+01 1.8169999999999999e+00 0 0 0
1836 444 1 4.1499999999999998e-01 2.6007863612492339e+00 2.7224748514712342e+01 7.4395778356851956e+00 2 0 0
1834 444 2 -8.2999999999999996e-01 2.9800147985249152e+00 2.6346001347280289e+01 7.4246698964157645e+00 2 0 0
1835 444 1 4.1499999999999998e-01 3.1087601377619771e+00 2.6155915003223111e+01 6.4954098624377066e+00 2 0 0
731 444 1 4.1499999999999998e-01 2.3556762777624072e+00 2.6379160977901822e+01 1.5397750746924080e+01 -2 -6 0
730 444 2 -8.2999999999999996e-01 2.1100911551602350e+00 2.6701253032796419e+01 1.4530469368725621e+01 -2 -6 0
995 444 1 4.1499999999999998e-01 3.6311794798784063e+00 2.7953368052686326e+01 1.4511987891063827e+01 2 1 0
1535 444 1 4.1499999999999998e-01 4.0554219748765998e+00 2.7526943667644460e+01 1.1885474959038698e+01 2 -1 0
349 444 2 -8.2999999999999996e-01 2.3067234951969104e+00 2.6613252404241052e+01 1.7583927613395332e+01 7 -1 0
350 444 1 4.1499999999999998e-01 2.4994189629989818e+00 2.7515529838600898e+01 1.7838871891596444e+01 7 -1 0
351 444 1 4.1499999999999998e-01 3.1535435832015528e+00 2.6251714134135007e+01 1.7322357790309081e+01 7 -1 0
3200 444 4 0.0000000000000000e+00 3.4729999999999999e+00 3.1549700000000001e+01 0.0000000000000000e+00 0 0 0
3201 444 4 -7.4069999999999997e-02 3.4766800000000000e+00 3.1567540000000001e+01 3.5851299999999999e+00 0 0 0
3204 444 4 0.0000000000000000e+00 3.4729999999999999e+00 2.9732749999999999e+01 1.8169999999999999e+00 0 0 0
3014 444 1 4.1499999999999998e-01 3.5333864585780921e+00 2.9923934542746615e+01 6.4824443853127729e+00 6 4 0
3015 444 1 4.1499999999999998e-01 4.0634397855893054e+00 3.1334190411670384e+01 6.3337234717211945e+00 6 4 0
2214 444 1 4.1499999999999998e-01 3.5467795239758129e+00 2.9284883428719972e+01 1.2624100356587325e+01 -1 0 0
2165 444 1 4.1499999999999998e-01 3.6008512489029596e+00 2.9605828412923696e+01 8.9572366575555051e+00 -1 0 0
1679 444 1 4.1499999999999998e-01 2.7621764882754190e+00 3.1997628085449104e+01 1.3227718981352920e+01 0 1 0
1678 444 2 -8.2999999999999996e-01 3.3956953090651796e+00 3.1918791998896488e+01 1.3940930579113580e+01 0 1 0
2212 444 2 -8.2999999999999996e-01 3.0182955208020537e+00 2.8853237231344107e+01 1.1952819418812851e+01 -1 0 0
2213 444 1 4.1499999999999998e-01 3.3544871227974675e+00 2.9196755326469937e+01 1.1125049783788446e+01 -1 0 0
2164 444 2 -8.2999999999999996e-01 3.8747017829265884e+00 3.0009647928012082e+01 9.7807460948586833e+00 -1 0 0
2826 444 1 4.1499999999999998e-01 2.7940396337348306e+00 2.9722685221441541e+01 1.7828360449819520e+01 -5 -3 0
1690 444 2 -8.2999999999999996e-01 3.2619844343367510e+00 2.9335664681308742e+01 1.9927817903779374e+01 3 3 0
2824 444 2 -8.2999999999999996e-01 2.0656324819407583e+00 2.9583299004126861e+01 1.7223193101719247e+01 -5 -3 0
73 444 2 -8.2999999999999996e-01 4.0468040686276625e+00 3.2157495664582321e+01 1.7661582005362774e+01 -1 -2 0
75 444 1 4.1499999999999998e-01 3.4331588485109172e+00 3.1797317130716127e+01 1.7021314128801979e+01 -1 -2 0
3054 444 4 0.0000000000000000e+00 5.2898399999999999e+00 6.6205000000000003e-01 0.0000000000000000e+00 0 0 0
3055 444 4 -7.4069999999999997e-02 5.2939699999999998e+00 6.6041000000000005e-01 3.5851400000000000e+00 0 0 0
3057 444 4 0.0000000000000000e+00 5.2898399999999999e+00 2.4790000000000001e+00 1.8169999999999999e+00 0 0 0
405 444 1 4.1499999999999998e-01 5.6338940588453124e+00 3.7303100744848736e+00 7.5888070979738043e+00 0 5 0
138 444 1 4.1499999999999998e-01 4.7202598496472854e+00 2.8270152141798426e+00 1.5364510452972405e+01 -4 4 0
2888 444 1 4.1499999999999998e-01 5.4351537329433057e+00 1.5170872020680968e+00 1.3401884041405433e+01 -1 0 0
136 444 2 -8.2999999999999996e-01 5.1995990083919486e+00 2.8203364964326303e+00 1.4536004873639559e+01 -4 4 0
403 444 2 -8.2999999999999996e-01 5.6260668104744953e+00 2.8895096912806060e+00 8.0462188284325524e+00 0 5 0
1669 444 2 -8.2999999999999996e-01 5.7374302481477217e+00 1.0262170008293874e+00 1.0339652824001039e+01 5 5 0
2887 444 2 -8.2999999999999996e-01 5.5883286508230201e+00 6.7350608117786981e-01 1.2976277966377273e+01 -1 0 0
1670 444 1 4.1499999999999998e-01 5.8734965248310669e+00 1.5775041027197225e+00 9.5690682603868922e+00 5 5 0
137 444 1 4.1499999999999998e-01 5.6650103460793337e+00 3.6566422722675558e+00 1.4521265939377209e+01 -4 4 0
2889 444 1 4.1499999999999998e-01 5.4897044280932583e+00 8.5485329850394143e-01 1.2041602334826635e+01 -1 0 0
1671 444 1 4.1499999999999998e-01 5.7125989795088836e+00 1.3363705227733647e-01 9.9948093671045335e+00 5 5 0
863 444 1 4.1499999999999998e-01 4.5924469772361247e+00 2.0764899704764797e+00 1.9685252521236219e+01 -1 7 0
1624 444 2 -8.2999999999999996e-01 5.3799430318660058e+00 3.7700690473137795e+00 1.7242978246795836e+01 3 2 0
864 444 1 4.1499999999999998e-01 6.0451855717867327e+00 1.7563734167803480e+00 1.9404234143849585e+01 -1 7 0