LAMMPS data file via write_data, version 11 Aug 2017, timestep = 1000000

3588 atoms
13 atom types
2024 bonds
5 bond types
1018 angles
5 angle types
12 dihedrals
4 dihedral types
9 impropers
1 improper types

0.0000000000000000e+00 3.2704500000000003e+01 xlo xhi
0.0000000000000000e+00 3.2704500000000003e+01 ylo yhi
0.0000000000000000e+00 8.0000000000000000e+01 zlo zhi

Masses

1 1.0079
2 15.9994
3 39.0983
4 63.546
5 15.9994
6 12.011
7 12.011
8 1.0079
9 12.011
10 15.9994
11 15.9994
12 15.9994
13 1.0079

Bond Coeffs # harmonic

1 450 0.9572
2 570 1.229
3 450 1.364
4 570 1.229
5 553 0.945

Angle Coeffs # harmonic

1 100 123.32
2 85 124
3 55 104.52
4 35 113
5 100 123.32

Dihedral Coeffs # charmm

1 0.922 1 180 0
2 3.741 2 0 0
3 0.922 1 0 0
4 3.741 2 180 0

Improper Coeffs # umbrella

1 21 0

Atoms # full

3049 444 4 -7.4069999999999997e-02 1.6704399999999999e+00 6.7142999999999997e-01 3.5839900000000000e+00 0 0 0
3051 444 4 0.0000000000000000e+00 1.6560500000000000e+00 2.4790000000000001e+00 1.8169999999999999e+00 0 0 0
3060 444 4 0.0000000000000000e+00 1.6560500000000000e+00 6.6205000000000003e-01 0.0000000000000000e+00 0 0 0
171 444 1 4.1499999999999998e-01 1.0556946817159535e-01 2.2844751757541237e+00 6.9257913449861395e+00 -2 2 0
83 444 1 4.1499999999999998e-01 1.2897390629215113e+00 1.3365215258632628e+00 1.3230907552189596e+01 1 2 0
84 444 1 4.1499999999999998e-01 1.5024559763691450e+00 2.4219801089694553e+00 1.2197260391067307e+01 1 2 0
82 444 2 -8.2999999999999996e-01 1.9080907567365868e+00 2.0165461034294361e+00 1.2963625570292688e+01 1 2 0
813 444 1 4.1499999999999998e-01 1.7512666598584461e+00 5.4274969931792427e-01 1.6759996408488021e+01 -2 -2 0
670 444 2 -8.2999999999999996e-01 6.3401610454223789e-01 6.0140026670828524e-02 1.9441676038140638e+01 1 0 0
2003 444 1 4.1499999999999998e-01 1.5337254485093488e-01 2.7576944892106892e+00 1.7262801645732239e+01 6 5 0
671 444 1 4.1499999999999998e-01 3.7621449325516387e-01 7.2590676548530786e-01 1.8804082956006795e+01 1 0 0
3066 444 4 0.0000000000000000e+00 1.6560500000000000e+00 4.2959500000000004e+00 0.0000000000000000e+00 0 0 0
3067 444 4 -7.4069999999999997e-02 1.6756400000000000e+00 4.2766999999999999e+00 3.5710899999999999e+00 0 0 0
3069 444 4 0.0000000000000000e+00 1.6560500000000000e+00 6.1128000000000000e+00 1.8169999999999999e+00 0 0 0
3086 444 4 0.0000000000000000e+00 1.6560500000000000e+00 7.9297500000000003e+00 0.0000000000000000e+00 0 0 0
3087 444 4 -7.4069999999999997e-02 1.6939700000000000e+00 7.9450799999999999e+00 3.5632199999999998e+00 0 0 0
624 444 1 4.1499999999999998e-01 7.8718987270540031e-01 4.6953573563207573e+00 7.5627885873138689e+00 5 3 0
622 444 2 -8.2999999999999996e-01 9.0920273723277670e-02 4.1113764201609353e+00 7.2621105758093485e+00 5 3 0
1288 444 2 -8.2999999999999996e-01 9.3179009918531411e-02 6.0199077780519472e+00 1.4700818810175756e+01 -1 0 0
521 444 1 4.1499999999999998e-01 1.3527055986484977e+00 6.5376543875439177e+00 9.0614138473690620e+00 1 4 0
1289 444 1 4.1499999999999998e-01 5.5722238037876159e-01 6.8271142991402245e+00 1.4922886002402750e+01 -1 0 0
2106 444 1 4.1499999999999998e-01 5.6457679102684799e-01 4.8739371069786781e+00 1.1859312870278078e+01 2 3 0
472 444 2 -8.2999999999999996e-01 3.3264793117878548e-02 8.0449102398200676e+00 9.5240097023235037e+00 1 2 0
520 444 2 -8.2999999999999996e-01 1.8361799331909407e+00 5.7728995678929351e+00 8.7489470228050976e+00 1 4 0
2802 444 1 4.1499999999999998e-01 7.3697323708580509e-01 7.2724318332386835e+00 1.1155174359767534e+01 2 4 0
2800 444 2 -8.2999999999999996e-01 1.5139804600715021e+00 7.0756329994441494e+00 1.1678397412487266e+01 2 4 0
974 444 1 4.1499999999999998e-01 1.7331685925424778e+00 7.8035497825727216e+00 1.3313279520827944e+01 0 0 0
973 444 2 -8.2999999999999996e-01 1.8729267088322037e+00 8.1484984536498963e+00 1.4195159130848570e+01 0 0 0
2087 444 1 4.1499999999999998e-01 1.7590696978896276e+00 5.1917299532754582e+00 1.6546581134412001e+01 2 4 0
2229 444 1 4.1499999999999998e-01 1.9659458293827703e+00 5.2375404068048388e+00 1.8476484137386919e+01 1 0 0
3089 444 4 0.0000000000000000e+00 1.6560500000000000e+00 9.7467000000000006e+00 1.8169999999999999e+00 0 0 0
3109 444 4 -7.4069999999999997e-02 1.6704399999999999e+00 1.1572929999999999e+01 3.5839900000000000e+00 0 0 0
3120 444 4 0.0000000000000000e+00 1.6560500000000000e+00 1.1563549999999999e+01 0.0000000000000000e+00 0 0 0
101 444 1 4.1499999999999998e-01 3.6308989238556172e-01 1.2157574365436064e+01 6.6314417307167979e+00 2 1 0
3023 444 3 1.0000000000000000e+00 1.7241401334668278e+00 1.0783480980340421e+01 1.4592169054794148e+01 1 1 0
1418 444 1 4.1499999999999998e-01 1.8057505265782614e+00 1.0433054525030959e+01 9.0966425634184862e+00 -2 2 0
1861 444 2 -8.2999999999999996e-01 4.8781798694034588e-02 1.0920497667563696e+01 9.2452912531108407e+00 -1 -2 0
473 444 1 4.1499999999999998e-01 2.3887338879556361e-01 8.9729982088572342e+00 9.4117127411630328e+00 1 2 0
2499 444 1 4.1499999999999998e-01 6.7514560621195852e-01 8.3086335728914165e+00 1.8357032941761510e+01 0 0 0
2012 444 1 4.1499999999999998e-01 1.8377419873970557e+00 1.1091528367299542e+01 1.8142203798196004e+01 4 -2 0
2011 444 2 -8.2999999999999996e-01 1.9519045430114457e+00 1.0673050954858336e+01 1.7288930376903554e+01 4 -2 0
991 444 2 -8.2999999999999996e-01 1.0053132258566950e+00 1.2179585410887375e+01 1.9432545331239190e+01 -1 0 0
993 444 1 4.1499999999999998e-01 2.3677555848116755e-01 1.2249193796020398e+01 1.8866208025224466e+01 -1 0 0
3111 444 4 0.0000000000000000e+00 1.6560500000000000e+00 1.3380500000000000e+01 1.8169999999999999e+00 0 0 0
3126 444 4 0.0000000000000000e+00 1.6560500000000000e+00 1.5197450000000000e+01 0.0000000000000000e+00 0 0 0
3127 444 4 -7.4069999999999997e-02 1.6756400000000000e+00 1.5178200000000000e+01 3.5710899999999999e+00 0 0 0
1859 444 1 4.1499999999999998e-01 4.4946392196681845e-01 1.4617609629073550e+01 7.3542860984493279e+00 -1 4 0
1858 444 2 -8.2999999999999996e-01 3.9791539310501867e-01 1.5431109268143260e+01 7.8560765130480315e+00 -1 4 0
102 444 1 4.1499999999999998e-01 1.1127617413878428e+00 1.3303874809068986e+01 5.9865516069522355e+00 2 1 0
100 444 2 -8.2999999999999996e-01 9.5711474176085998e-01 1.2881108131877118e+01 6.8311073344750115e+00 2 1 0
1842 444 1 4.1499999999999998e-01 8.5440906204249323e-01 1.3222123015775242e+01 1.4518815943340805e+01 2 -2 0
633 444 1 4.1499999999999998e-01 1.5438121148522588e+00 1.3859108499365236e+01 9.4535394691054222e+00 2 3 0
1840 444 2 -8.2999999999999996e-01 2.2857087796076273e-02 1.2829285658836895e+01 1.4253425550263636e+01 2 -2 0
992 444 1 4.1499999999999998e-01 1.1325666374090593e+00 1.3064614111708677e+01 1.9774252153851606e+01 -1 0 0
2231 444 1 4.1499999999999998e-01 8.0501781177058285e-01 1.5289779310001062e+01 1.7432516797441998e+01 1 2 0
3129 444 4 0.0000000000000000e+00 1.6560500000000000e+00 1.7014299999999999e+01 1.8169999999999999e+00 0 0 0
3146 444 4 0.0000000000000000e+00 1.6560500000000000e+00 1.8831250000000001e+01 0.0000000000000000e+00 0 0 0
3147 444 4 -7.4069999999999997e-02 1.6939700000000000e+00 1.8846579999999999e+01 3.5632199999999998e+00 0 0 0
2391 444 1 4.1499999999999998e-01 1.4947452004039277e+00 1.6557087020007256e+01 7.4664013825980406e+00 -3 -3 0
2390 444 1 4.1499999999999998e-01 1.6696305301570247e+00 1.7487600371504218e+01 6.2851072187197774e+00 -3 -3 0
562 444 2 -8.2999999999999996e-01 1.0780832244433400e+00 1.8939504596603669e+01 1.5277094049160889e+01 1 -1 0
892 444 2 -8.2999999999999996e-01 1.1226482797179873e+00 2.0177681853370089e+01 1.0005225686151602e+01 -4 -7 0
894 444 1 4.1499999999999998e-01 2.6378601408925484e-01 1.9768080914447797e+01 9.9012298545877808e+00 -4 -7 0
1751 444 1 4.1499999999999998e-01 1.3505548508080016e+00 1.7682054935231822e+01 1.0111012844541168e+01 1 0 0
563 444 1 4.1499999999999998e-01 1.6072392772101571e+00 1.8373154544461961e+01 1.4715423808448696e+01 1 -1 0
1752 444 1 4.1499999999999998e-01 3.8918727638364897e-01 1.6684040292740125e+01 9.5013944687976526e+00 1 0 0
564 444 1 4.1499999999999998e-01 1.0708792823276208e+00 1.9784427013212017e+01 1.4827331644762889e+01 1 -1 0
1750 444 2 -8.2999999999999996e-01 5.8713327040116292e-01 1.7142918257445778e+01 1.0317777069410564e+01 1 0 0
3149 444 4 0.0000000000000000e+00 1.6560500000000000e+00 2.0648199999999999e+01 1.8169999999999999e+00 0 0 0
3169 444 4 -7.4069999999999997e-02 1.6704399999999999e+00 2.2474430000000002e+01 3.5839900000000000e+00 0 0 0
3171 444 4 0.0000000000000000e+00 1.6560500000000000e+00 2.4282000000000000e+01 1.8169999999999999e+00 0 0 0
3180 444 4 0.0000000000000000e+00 1.6560500000000000e+00 2.2465050000000002e+01 0.0000000000000000e+00 0 0 0
643 444 2 -8.2999999999999996e-01 1.7438729352429947e+00 2.3362540852052547e+01 7.8904030033761998e+00 1 -5 0
645 444 1 4.1499999999999998e-01 1.1958582151126045e+00 2.2758224941462537e+01 7.3896894705266654e+00 1 -5 0
1036 444 2 -8.2999999999999996e-01 1.1940428485700814e+00 2.0932339559158393e+01 6.7081280674122841e+00 -2 1 0
1038 444 1 4.1499999999999998e-01 1.2116078506787973e+00 2.0833719183369535e+01 5.7561838396217002e+00 -2 1 0
469 444 2 -8.2999999999999996e-01 1.0152767728052383e+00 2.0997383025145471e+01 1.3797623386897021e+01 2 -4 0
471 444 1 4.1499999999999998e-01 1.9532880808256767e+00 2.0961762562018841e+01 1.3610279225953265e+01 2 -4 0
470 444 1 4.1499999999999998e-01 5.9593100998881077e-01 2.0899916045744195e+01 1.2942707491645013e+01 2 -4 0
688 444 2 -8.2999999999999996e-01 3.1651219275976433e-01 2.2355536060975357e+01 1.1483893861733769e+01 0 4 0
2067 444 1 4.1499999999999998e-01 4.5053321202815455e-01 2.4086865498171846e+01 8.9772465993131032e+00 3 -3 0
893 444 1 4.1499999999999998e-01 9.4627779135427925e-01 2.0986177726375100e+01 1.0486328814183103e+01 -4 -7 0
690 444 1 4.1499999999999998e-01 1.4997776216617276e-01 2.3066244116606253e+01 1.0864706217641848e+01 0 4 0
2755 444 2 -8.2999999999999996e-01 6.7952648878545996e-01 2.0792475538724887e+01 1.9811824084286965e+01 -1 -7 0
547 444 2 -8.2999999999999996e-01 1.4400766055870946e+00 2.2259113289510296e+01 1.7084257331963585e+01 2 3 0
549 444 1 4.1499999999999998e-01 5.7744714450031631e-01 2.1852089693468159e+01 1.7164478187065882e+01 2 3 0
2757 444 1 4.1499999999999998e-01 3.9056148581682537e-01 2.0787859846170061e+01 1.8899294728528083e+01 -1 -7 0
3186 444 4 0.0000000000000000e+00 1.6560500000000000e+00 2.6098949999999999e+01 0.0000000000000000e+00 0 0 0
3187 444 4 -7.4069999999999997e-02 1.6756400000000000e+00 2.6079699999999999e+01 3.5710899999999999e+00 0 0 0
3189 444 4 0.0000000000000000e+00 1.6560500000000000e+00 2.7915800000000001e+01 1.8169999999999999e+00 0 0 0
912 444 1 4.1499999999999998e-01 7.1706979656365588e-01 2.5624902231730648e+01 6.3194405086068635e+00 2 -2 0
2590 444 2 -8.2999999999999996e-01 1.7937809382148293e+00 2.8443878331463910e+01 7.4542769795301513e+00 0 4 0
589 444 2 -8.2999999999999996e-01 8.4684422527661940e-01 2.5468891517845982e+01 1.2348089887461251e+01 5 2 0
590 444 1 4.1499999999999998e-01 1.6139712854917572e+00 2.4898827382590444e+01 1.2295401728474879e+01 5 2 0
994 444 2 -8.2999999999999996e-01 2.3333936749508957e-01 2.5556575961616108e+01 1.5021371518495513e+01 2 5 0
3028 444 3 1.0000000000000000e+00 1.7545221082825910e-01 2.6959526212066205e+01 9.0137058904775937e+00 -2 0 0
509 444 1 4.1499999999999998e-01 1.6929197236810953e+00 2.8465743582411204e+01 1.5897794801990237e+01 -1 1 0
591 444 1 4.1499999999999998e-01 1.0917073518476881e+00 2.6247569749033254e+01 1.1848154745797778e+01 5 2 0
995 444 1 4.1499999999999998e-01 7.1941734687969205e-01 2.5728912534741603e+01 1.4214984333518574e+01 2 5 0
44 444 1 4.1499999999999998e-01 1.5276968243992641e+00 2.5175184421127224e+01 1.7918092227410739e+01 2 1 0
43 444 2 -8.2999999999999996e-01 6.9822368440129112e-01 2.5652836726665026e+01 1.7910639040543685e+01 2 1 0
45 444 1 4.1499999999999998e-01 6.1339730976303242e-01 2.5972439711989328e+01 1.7012367889823981e+01 2 1 0
3206 444 4 0.0000000000000000e+00 1.6560500000000000e+00 2.9732749999999999e+01 0.0000000000000000e+00 0 0 0
3207 444 4 -7.4069999999999997e-02 1.6939700000000000e+00 2.9748080000000002e+01 3.5632199999999998e+00 0 0 0
3209 444 4 0.0000000000000000e+00 1.6560500000000000e+00 3.1549700000000001e+01 1.8169999999999999e+00 0 0 0
1646 444 1 4.1499999999999998e-01 1.3747135123848340e+00 3.1552749368848989e+01 6.2919777715293330e+00 -1 -3 0
1647 444 1 4.1499999999999998e-01 4.2036445364081260e-01 3.2435633029791092e+01 7.0676259283775096e+00 -1 -3 0
1645 444 2 -8.2999999999999996e-01 9.0195215840657406e-01 3.1610213318962945e+01 7.1222950809896339e+00 -1 -3 0
2458 444 2 -8.2999999999999996e-01 4.4833216950339727e-01 2.9745684358131044e+01 1.2419446374870606e+01 3 -1 0
749 444 1 4.1499999999999998e-01 3.5220855806480750e-01 3.1943516090538658e+01 9.3516016286285630e+00 -2 1 0
2459 444 1 4.1499999999999998e-01 9.8733872683470003e-01 2.9305381503468546e+01 1.3076589774710024e+01 3 -1 0
507 444 1 4.1499999999999998e-01 2.0268224097233896e+00 3.1228166024170637e+01 8.5774240054623707e+00 0 -3 0
94 444 2 -8.2999999999999996e-01 2.6141685991041649e-02 3.2679080170054725e+01 1.3706364181301355e+01 -1 0 0
672 444 1 4.1499999999999998e-01 4.3543665580111768e-01 3.1932158862668746e+01 1.9012988215352113e+01 1 -1 0
3050 444 4 0.0000000000000000e+00 3.4729999999999999e+00 6.6205000000000003e-01 1.8169999999999999e+00 0 0 0
3074 444 4 -7.4069999999999997e-02 3.4794800000000001e+00 2.4716200000000002e+00 3.5876800000000002e+00 0 0 0
3075 444 4 0.0000000000000000e+00 3.4729999999999999e+00 2.4790000000000001e+00 0.0000000000000000e+00 0 0 0
109 444 2 -8.2999999999999996e-01 2.8890791610029396e+00 2.0603291287820902e+00 6.9609513402851002e+00 4 -5 0
110 444 1 4.1499999999999998e-01 3.5543770037464553e+00 2.7362938112864343e+00 7.0901129217466865e+00 4 -5 0
111 444 1 4.1499999999999998e-01 2.7757941482642310e+00 2.0133849151694148e+00 6.0116386000999480e+00 4 -5 0
2788 444 2 -8.2999999999999996e-01 2.8117953159320037e+00 1.1846703016042024e+00 9.6319501539887167e+00 3 2 0
925 444 2 -8.2999999999999996e-01 3.8182705992109969e+00 1.7672199669042421e+00 1.5083060343958749e+01 0 1 0
2790 444 1 4.1499999999999998e-01 2.8287376996456968e+00 1.2476883193691994e+00 8.6769770253579370e+00 3 2 0
2789 444 1 4.1499999999999998e-01 2.5036083329368548e+00 2.9577884463802684e-01 9.8083719918365730e+00 3 2 0
2706 444 1 4.1499999999999998e-01 2.1518137807924620e+00 3.3262516661921873e+00 1.0118576231975673e+01 -4 3 0
926 444 1 4.1499999999999998e-01 3.1719573198093096e+00 2.0774397676842420e+00 1.4448809067437569e+01 0 1 0
927 444 1 4.1499999999999998e-01 3.4349767615436066e+00 9.6830278270558778e-01 1.5445067795872138e+01 0 1 0
981 444 1 4.1499999999999998e-01 2.8849286374748488e+00 4.5971115184662731e-01 1.2563720250053915e+01 0 3 0
1415 444 1 4.1499999999999998e-01 3.4773892560611031e+00 4.0846703840311456e+00 1.1920488097368677e+01 2 0 0
3064 444 4 0.0000000000000000e+00 3.4729999999999999e+00 6.1128000000000000e+00 0.0000000000000000e+00 0 0 0
3065 444 4 -7.4069999999999997e-02 3.4813999999999998e+00 6.1070599999999997e+00 3.5774300000000001e+00 0 0 0
3068 444 4 0.0000000000000000e+00 3.4729999999999999e+00 4.2959500000000004e+00 1.8169999999999999e+00 0 0 0
3088 444 4 0.0000000000000000e+00 3.4729999999999999e+00 7.9297500000000003e+00 1.8169999999999999e+00 0 0 0
1964 444 1 4.1499999999999998e-01 3.7477132825935886e+00 8.0565699963656847e+00 6.5783515230018459e+00 2 3 0
1965 444 1 4.1499999999999998e-01 2.5560604756147751e+00 7.1361307661025384e+00 6.4213470111915711e+00 2 3 0
1963 444 2 -8.2999999999999996e-01 3.4103032889405869e+00 7.2023880502001729e+00 6.8480924951977382e+00 2 3 0
468 444 1 4.1499999999999998e-01 3.6046005434811592e+00 7.3123282486121797e+00 9.2397680878463628e+00 2 0 0
2705 444 1 4.1499999999999998e-01 2.1433395673928888e+00 4.8394159227824796e+00 1.0072117594296287e+01 -4 3 0
2801 444 1 4.1499999999999998e-01 2.2381035313069910e+00 7.1048622280823981e+00 1.1053078395092291e+01 2 4 0
975 444 1 4.1499999999999998e-01 2.7324269872686799e+00 7.8134000925495428e+00 1.4450505549173247e+01 0 0 0
466 444 2 -8.2999999999999996e-01 3.5569446045563864e+00 7.8047085354933703e+00 1.0059232816537140e+01 2 0 0
2704 444 2 -8.2999999999999996e-01 2.2735636360591713e+00 4.1010977711242065e+00 1.0667231382661493e+01 -4 3 0
522 444 1 4.1499999999999998e-01 2.3424941003652795e+00 6.0969618045196103e+00 8.0040564986312486e+00 1 4 0
2088 444 1 4.1499999999999998e-01 3.2537374497563532e+00 5.3665404373690881e+00 1.6381339102547109e+01 2 4 0
2227 444 2 -8.2999999999999996e-01 2.1391326794964987e+00 4.8409728970169335e+00 1.9330282988315332e+01 1 0 0
2228 444 1 4.1499999999999998e-01 3.0685311229698531e+00 4.6133427466554240e+00 1.9305084351167999e+01 1 0 0
1049 444 1 4.1499999999999998e-01 2.4544742705029501e+00 7.4188355746018910e+00 1.7503197797145138e+01 2 3 0
2086 444 2 -8.2999999999999996e-01 2.4992704728718360e+00 5.7126270688316456e+00 1.6858031824297075e+01 2 4 0
3084 444 4 0.0000000000000000e+00 3.4729999999999999e+00 9.7467000000000006e+00 0.0000000000000000e+00 0 0 0
3085 444 4 -7.4069999999999997e-02 3.4817000000000000e+00 9.7606800000000007e+00 3.5841200000000000e+00 0 0 0
3110 444 4 0.0000000000000000e+00 3.4729999999999999e+00 1.1563549999999999e+01 1.8169999999999999e+00 0 0 0
2507 444 1 4.1499999999999998e-01 2.8696424080970622e+00 1.1142721367680190e+01 6.1688078409116551e+00 -2 1 0
2506 444 2 -8.2999999999999996e-01 3.5083162919280348e+00 1.1526632658342306e+01 6.7695905665336094e+00 -2 1 0
1417 444 2 -8.2999999999999996e-01 2.4758741925875727e+00 9.8666767900992074e+00 8.7140417390383416e+00 -2 2 0
186 444 1 4.1499999999999998e-01 3.8917626721217542e+00 1.0090125799361394e+01 1.1189972784066043e+01 1 -4 0
467 444 1 4.1499999999999998e-01 3.3858865947464434e+00 8.7065220378266126e+00 9.7877490149385853e+00 2 0 0
184 444 2 -8.2999999999999996e-01 3.5186384515818556e+00 1.0565507549800092e+01 1.1932281782289214e+01 1 -4 0
1419 444 1 4.1499999999999998e-01 2.8506127846493743e+00 1.0385360869555482e+01 8.0021637745319243e+00 -2 2 0
2013 444 1 4.1499999999999998e-01 2.3554773781162264e+00 9.8282333982208865e+00 1.7488039157859060e+01 4 -2 0
1050 444 1 4.1499999999999998e-01 3.3855004650996157e+00 8.4279090650942035e+00 1.8141050606571270e+01 2 3 0
1048 444 2 -8.2999999999999996e-01 2.4712606298329196e+00 8.2936658749114240e+00 1.7891298380278830e+01 2 3 0
3128 444 4 0.0000000000000000e+00 3.4729999999999999e+00 1.5197450000000000e+01 1.8169999999999999e+00 0 0 0
3134 444 4 -7.4069999999999997e-02 3.4794800000000001e+00 1.3373120000000000e+01 3.5876800000000002e+00 0 0 0
3135 444 4 0.0000000000000000e+00 3.4729999999999999e+00 1.3380500000000000e+01 0.0000000000000000e+00 0 0 0
1362 444 1 4.1499999999999998e-01 3.5095920786574180e+00 1.5036971664226449e+01 6.8191363518487291e+00 2 0 0
2508 444 1 4.1499999999999998e-01 3.0588225743386048e+00 1.2283062850617346e+01 7.1464209943983246e+00 -2 1 0
1360 444 2 -8.2999999999999996e-01 3.7944933016232154e+00 1.4491422560985161e+01 7.5522389788285453e+00 2 0 0
262 444 2 -8.2999999999999996e-01 2.5201356781782831e+00 1.3355261683721013e+01 1.4827429800767593e+01 1 1 0
631 444 2 -8.2999999999999996e-01 2.4093730678111056e+00 1.4100994323607917e+01 9.7829743990089213e+00 2 3 0
1167 444 1 4.1499999999999998e-01 3.7310270124603475e+00 1.2469456358054504e+01 1.1914517213290907e+01 1 3 0
1166 444 1 4.1499999999999998e-01 3.3761787436256614e+00 1.3713951782073424e+01 1.1128890663019286e+01 1 3 0
263 444 1 4.1499999999999998e-01 3.4326004000089014e+00 1.3353561999895758e+01 1.4538228794313293e+01 1 1 0
1165 444 2 -8.2999999999999996e-01 3.8963698878244672e+00 1.3411364416496847e+01 1.1873252112269988e+01 1 3 0
264 444 1 4.1499999999999998e-01 2.4912382033943707e+00 1.4008237698849769e+01 1.5526728927278862e+01 1 1 0
632 444 1 4.1499999999999998e-01 2.9261116011558510e+00 1.4273511767384171e+01 8.9959222442701190e+00 2 3 0
34 444 2 -8.2999999999999996e-01 2.3986581816008083e+00 1.5220492179441178e+01 1.6870249513768247e+01 1 -4 0
36 444 1 4.1499999999999998e-01 2.8925573585659534e+00 1.5922461974717727e+01 1.6446535097106771e+01 1 -4 0
35 444 1 4.1499999999999998e-01 2.9598181949797189e+00 1.4933178754051053e+01 1.7590514951366220e+01 1 -4 0
577 444 2 -8.2999999999999996e-01 3.8846296970257326e+00 1.4536592928653054e+01 1.9102292463010290e+01 4 -1 0
3124 444 4 0.0000000000000000e+00 3.4729999999999999e+00 1.7014299999999999e+01 0.0000000000000000e+00 0 0 0
3125 444 4 -7.4069999999999997e-02 3.4813999999999998e+00 1.7008559999999999e+01 3.5774300000000001e+00 0 0 0
3148 444 4 0.0000000000000000e+00 3.4729999999999999e+00 1.8831250000000001e+01 1.8169999999999999e+00 0 0 0
2389 444 2 -8.2999999999999996e-01 2.1309396855396052e+00 1.7136102780147297e+01 7.0466027437449261e+00 -3 -3 0
215 444 1 4.1499999999999998e-01 3.9989254228052982e+00 1.7050513767560261e+01 7.0952435762284969e+00 1 -3 0
2915 444 1 4.1499999999999998e-01 3.5302190546277812e+00 1.8174854285851431e+01 1.3373583474160485e+01 5 -1 0
257 444 1 4.1499999999999998e-01 3.2099414151508650e+00 1.7884505089530581e+01 8.9386639154274938e+00 -1 -2 0
256 444 2 -8.2999999999999996e-01 3.2692696629245313e+00 1.7458424314176607e+01 9.7937472658243863e+00 -1 -2 0
2914 444 2 -8.2999999999999996e-01 2.6282751843926135e+00 1.7860684937960457e+01 1.3310126575993829e+01 5 -1 0
2916 444 1 4.1499999999999998e-01 2.6654466522868860e+00 1.7152681520649782e+01 1.2667023686899183e+01 5 -1 0
258 444 1 4.1499999999999998e-01 3.4110906532679599e+00 1.6533597689357499e+01 9.5917209509678258e+00 -1 -2 0
2447 444 1 4.1499999999999998e-01 3.1748805074939228e+00 2.0394367915059064e+01 9.5412927238984846e+00 1 -1 0
1236 444 1 4.1499999999999998e-01 3.7762000091323387e+00 1.8228914414512154e+01 1.9631591075195573e+01 1 0 0
349 444 2 -8.2999999999999996e-01 3.1160994943933082e+00 1.9539101193816411e+01 1.6935769009707066e+01 -1 1 0
350 444 1 4.1499999999999998e-01 2.4714679041722838e+00 1.9242883927421726e+01 1.6293166167447449e+01 -1 1 0
351 444 1 4.1499999999999998e-01 3.4361381490355760e+00 1.8734240836487309e+01 1.7343208754170110e+01 -1 1 0
3144 444 4 0.0000000000000000e+00 3.4729999999999999e+00 2.0648199999999999e+01 0.0000000000000000e+00 0 0 0
3145 444 4 -7.4069999999999997e-02 3.4817000000000000e+00 2.0662179999999999e+01 3.5841200000000000e+00 0 0 0
3170 444 4 0.0000000000000000e+00 3.4729999999999999e+00 2.2465050000000002e+01 1.8169999999999999e+00 0 0 0
3194 444 4 -7.4069999999999997e-02 3.4794800000000001e+00 2.4274619999999999e+01 3.5876800000000002e+00 0 0 0
3195 444 4 0.0000000000000000e+00 3.4729999999999999e+00 2.4282000000000000e+01 0.0000000000000000e+00 0 0 0
644 444 1 4.1499999999999998e-01 2.5984989318117631e+00 2.3323376932624139e+01 7.4610866656581436e+00 1 -5 0
1037 444 1 4.1499999999999998e-01 2.0951151990223331e+00 2.0763668514610881e+01 6.9835400333006463e+00 -2 1 0
1855 444 2 -8.2999999999999996e-01 3.8739397199989520e+00 2.0571035954114841e+01 7.1171973142463862e+00 0 0 0
1688 444 1 4.1499999999999998e-01 3.2212366919893727e+00 2.0662036356118435e+01 1.2272505632423725e+01 -1 -2 0
1687 444 2 -8.2999999999999996e-01 3.5863389958089611e+00 2.0820353811785289e+01 1.3143061689544300e+01 -1 -2 0
1370 444 1 4.1499999999999998e-01 3.9446936297327371e+00 2.3147206725273946e+01 1.5617939466949213e+01 5 5 0
2980 444 2 -8.2999999999999996e-01 3.1629010587930115e+00 2.4340347409399477e+01 1.1555061584290057e+01 2 -3 0
2982 444 1 4.1499999999999998e-01 2.9826568053633045e+00 2.3575764922886528e+01 1.2102015344169594e+01 2 -3 0
1371 444 1 4.1499999999999998e-01 2.6224337408293241e+00 2.3868671085273114e+01 1.5769640465085871e+01 5 5 0
2981 444 1 4.1499999999999998e-01 3.5369893128766754e+00 2.3978064359578273e+01 1.0751916635335645e+01 2 -3 0
1369 444 2 -8.2999999999999996e-01 3.4957723616424872e+00 2.3960979419153261e+01 1.5388864014483717e+01 5 5 0
2446 444 2 -8.2999999999999996e-01 3.8476893493065840e+00 2.0903802883204886e+01 9.9929969278337687e+00 1 -1 0
548 444 1 4.1499999999999998e-01 2.0577793490888521e+00 2.1547517323686076e+01 1.7252503335406132e+01 2 3 0
2255 444 1 4.1499999999999998e-01 2.2123660852152320e+00 2.3365920309775355e+01 1.8232185638819708e+01 2 -1 0
2254 444 2 -8.2999999999999996e-01 2.8676226325481786e+00 2.4059405827464765e+01 1.8309317698141477e+01 2 -1 0
2256 444 1 4.1499999999999998e-01 3.7063267476989132e+00 2.3598095940921155e+01 1.8310105624642855e+01 2 -1 0
807 444 1 4.1499999999999998e-01 3.8798889945021693e+00 2.0759110958115933e+01 1.6231219036735002e+01 3 0 0
3184 444 4 0.0000000000000000e+00 3.4729999999999999e+00 2.7915800000000001e+01 0.0000000000000000e+00 0 0 0
3185 444 4 -7.4069999999999997e-02 3.4813999999999998e+00 2.7910060000000001e+01 3.5774300000000001e+00 0 0 0
3188 444 4 0.0000000000000000e+00 3.4729999999999999e+00 2.6098949999999999e+01 1.8169999999999999e+00 0 0 0
1936 444 2 -8.2999999999999996e-01 2.9002600979341380e+00 2.6094350622034238e+01 7.1804371976412993e+00 -1 -1 0
1937 444 1 4.1499999999999998e-01 2.8521343149744420e+00 2.5213517053816823e+01 7.5519857959955470e+00 -1 -1 0
2592 444 1 4.1499999999999998e-01 2.1927838703671942e+00 2.7586971493552721e+01 7.3034816729360781e+00 0 4 0
1938 444 1 4.1499999999999998e-01 3.8265083884851641e+00 2.6216745748471585e+01 6.9723110117252620e+00 -1 -1 0
2273 444 1 4.1499999999999998e-01 2.7666245169991255e+00 2.8063737665843927e+01 1.1499780359825946e+01 -1 -1 0
2274 444 1 4.1499999999999998e-01 3.0619162018906367e+00 2.6870472858016964e+01 1.0616141415554207e+01 -1 -1 0
512 444 1 4.1499999999999998e-01 4.0307837752720532e+00 2.5084922485896694e+01 1.4296724322693645e+01 -3 3 0
2272 444 2 -8.2999999999999996e-01 2.3477850305825543e+00 2.7435061454703639e+01 1.0911926267021499e+01 -1 -1 0
513 444 1 4.1499999999999998e-01 3.8535088209349513e+00 2.5414119202835664e+01 1.2829721090415852e+01 -3 3 0
510 444 1 4.1499999999999998e-01 3.0636651467647527e+00 2.8177040742285016e+01 1.5323683941762329e+01 -1 1 0
999 444 1 4.1499999999999998e-01 3.7335857791183362e+00 2.6518483052016730e+01 1.9742240278473666e+01 8 -6 0
3204 444 4 0.0000000000000000e+00 3.4729999999999999e+00 3.1549700000000001e+01 0.0000000000000000e+00 0 0 0
3205 444 4 -7.4069999999999997e-02 3.4817000000000000e+00 3.1563680000000002e+01 3.5841200000000000e+00 0 0 0
3208 444 4 0.0000000000000000e+00 3.4729999999999999e+00 2.9732749999999999e+01 1.8169999999999999e+00 0 0 0
1597 444 2 -8.2999999999999996e-01 3.6867862624340355e+00 2.9969791452127588e+01 6.8270968738602065e+00 2 0 0
2591 444 1 4.1499999999999998e-01 2.5341605609581319e+00 2.9048977665079203e+01 7.4981488730906936e+00 0 4 0
1598 444 1 4.1499999999999998e-01 3.4110936878503373e+00 2.9475688003213818e+01 6.0550295881439249e+00 2 0 0
506 444 1 4.1499999999999998e-01 2.6488796432053201e+00 3.0646597418119406e+01 9.8291104384671311e+00 0 -3 0
505 444 2 -8.2999999999999996e-01 2.1661373671961548e+00 3.1407898164289222e+01 9.5072202497487801e+00 0 -3 0
803 444 1 4.1499999999999998e-01 3.7262958882267179e+00 3.1742980575329991e+01 1.4056775083675841e+01 -1 -3 0
804 444 1 4.1499999999999998e-01 3.9400970812511762e+00 3.1127652838362081e+01 1.5423360690526041e+01 -1 -3 0
979 444 2 -8.2999999999999996e-01 2.9989614850990018e+00 3.2245241910557148e+01 1.2321389184177683e+01 0 2 0
1517 444 1 4.1499999999999998e-01 3.7275059222505242e+00 2.9595101515118397e+01 1.3605911271842752e+01 -1 2 0
980 444 1 4.1499999999999998e-01 2.1162988847613180e+00 3.1941672714725936e+01 1.2109293581142820e+01 0 2 0
1516 444 2 -8.2999999999999996e-01 3.5219106229408856e+00 2.8809848469649690e+01 1.3098624221533052e+01 -1 2 0
2301 444 1 4.1499999999999998e-01 2.6514450478504532e+00 2.9787199794348265e+01 1.7503767587684436e+01 3 0 0
2299 444 2 -8.2999999999999996e-01 3.0678049550002107e+00 3.0447663719765700e+01 1.8057540579442087e+01 3 0 0
2300 444 1 4.1499999999999998e-01 2.8985625128166195e+00 3.0152110572298962e+01 1.8952100658330252e+01 3 0 0
812 444 1 4.1499999999999998e-01 2.5291851115022839e+00 3.2046290362944298e+01 1.7254400480279799e+01 -2 -3 0
811 444 2 -8.2999999999999996e-01 2.5110354286079506e+00 3.2701591878565040e+01 1.6556916909013101e+01 -2 -3 0
508 444 2 -8.2999999999999996e-01 2.6251761693750622e+00 2.8621003513448528e+01 1.6049533009002872e+01 -1 1 0
3054 444 4 0.0000000000000000e+00 5.2898399999999999e+00 6.6205000000000003e-01 0.0000000000000000e+00 0 0 0
3055 444 4 -7.4069999999999997e-02 5.2798400000000001e+00 6.7027999999999999e-01 3.5881099999999999e+00 0 0 0
3057 444 4 0.0000000000000000e+00 5.2898399999999999e+00 2.4790000000000001e+00 1.8169999999999999e+00 0 0 0
2279 444 1 4.1499999999999998e-01 5.8793805323450838e+00 3.5716086357450210e+00 7.3656015888925364e+00 -1 6 0
788 444 1 4.1499999999999998e-01 4.3126776495747468e+00 4.2602350213849177e-01 6.8638492683313412e+00 -2 0 0
1977 444 1 4.1499999999999998e-01 4.4443587065266428e+00 1.9127636734419309e+00 1.0648759487314257e+01 1 -1 0
1976 444 1 4.1499999999999998e-01 5.5004006524671496e+00 2.2977213372504255e+00 1.1662899233394562e+01 1 -1 0
1975 444 2 -8.2999999999999996e-01 5.3608956475857692e+00 2.1784951499668681e+00 1.0723454294553962e+01 1 -1 0
2893 444 2 -8.2999999999999996e-01 5.4939295660209870e+00 1.6990894316323555e+00 1.3339080394322306e+01 5 1 0
2894 444 1 4.1499999999999998e-01 4.8261709312951604e+00 1.7061133110802147e+00 1.4024851029580232e+01 5 1 0
1416 444 1 4.1499999999999998e-01 4.1727880869605452e+00 3.1238488518137291e+00 1.2861305722029886e+01 2 0 0
1414 444 2 -8.2999999999999996e-01 4.1533689909947755e+00 4.0436149605248355e+00 1.2596947819015012e+01 2 0 0
2895 444 1 4.1499999999999998e-01 6.1235361082741981e+00 1.0367666485925835e+00 1.3623959512321385e+01 5 1 0
2816 444 1 4.1499999999999998e-01 5.1800913325113385e+00 2.4856491105855723e+00 1.6185701347057265e+01 2 4 0
2815 444 2 -8.2999999999999996e-01 5.8974724092680679e+00 2.9334208685486409e+00 1.6634140115347350e+01 2 4 0