LAMMPS data file via write_data, version 11 Aug 2017, timestep = 1000000

3579 atoms
13 atom types
2024 bonds
5 bond types
1018 angles
5 angle types
12 dihedrals
4 dihedral types
9 impropers
1 improper types

0.0000000000000000e+00 3.2704500000000003e+01 xlo xhi
0.0000000000000000e+00 3.2704500000000003e+01 ylo yhi
0.0000000000000000e+00 8.0000000000000000e+01 zlo zhi

Masses

1 1.0079
2 15.9994
3 39.0983
4 63.546
5 15.9994
6 12.011
7 15.9994
8 1.0079
9 12.011
10 15.9994
11 15.9994
12 15.9994
13 1.0079

Bond Coeffs # harmonic

1 450 0.9572
2 570 1.229
3 450 1.364
4 570 1.229
5 553 0.945

Angle Coeffs # harmonic

1 100 123.32
2 85 124
3 55 104.52
4 35 113
5 100 123.32

Dihedral Coeffs # charmm

1 0.922 1 180 0
2 3.741 2 0 0
3 0.922 1 0 0
4 3.741 2 180 0

Improper Coeffs # umbrella

1 21 0

Atoms # full

3049 444 4 -7.4069999999999997e-02 1.6646300000000001e+00 6.6500000000000004e-01 3.5918999999999999e+00 0 0 0
3050 444 4 0.0000000000000000e+00 3.4729999999999999e+00 6.6205000000000003e-01 1.8169999999999999e+00 0 0 0
3051 444 4 0.0000000000000000e+00 1.6560500000000000e+00 2.4790000000000001e+00 1.8169999999999999e+00 0 0 0
3054 444 4 0.0000000000000000e+00 5.2898399999999999e+00 6.6205000000000003e-01 0.0000000000000000e+00 0 0 0
3055 444 4 -7.4069999999999997e-02 5.2824900000000001e+00 6.5998000000000001e-01 3.5908300000000000e+00 0 0 0
3057 444 4 0.0000000000000000e+00 5.2898399999999999e+00 2.4790000000000001e+00 1.8169999999999999e+00 0 0 0
3060 444 4 0.0000000000000000e+00 1.6560500000000000e+00 6.6205000000000003e-01 0.0000000000000000e+00 0 0 0
3064 444 4 0.0000000000000000e+00 3.4729999999999999e+00 6.1128000000000000e+00 0.0000000000000000e+00 0 0 0
3065 444 4 -7.4069999999999997e-02 3.4714800000000001e+00 6.1138599999999999e+00 3.5847199999999999e+00 0 0 0
3066 444 4 0.0000000000000000e+00 1.6560500000000000e+00 4.2959500000000004e+00 0.0000000000000000e+00 0 0 0
3067 444 4 -7.4069999999999997e-02 1.6548600000000000e+00 4.2991700000000002e+00 3.5781999999999998e+00 0 0 0
3068 444 4 0.0000000000000000e+00 3.4729999999999999e+00 4.2959500000000004e+00 1.8169999999999999e+00 0 0 0
3069 444 4 0.0000000000000000e+00 1.6560500000000000e+00 6.1128000000000000e+00 1.8169999999999999e+00 0 0 0
3074 444 4 -7.4069999999999997e-02 3.4707200000000000e+00 2.4723899999999999e+00 3.5906400000000001e+00 0 0 0
3075 444 4 0.0000000000000000e+00 3.4729999999999999e+00 2.4790000000000001e+00 0.0000000000000000e+00 0 0 0
3076 444 4 0.0000000000000000e+00 5.2898399999999999e+00 4.2959500000000004e+00 0.0000000000000000e+00 0 0 0
3077 444 4 0.0000000000000000e+00 5.2898399999999999e+00 6.1128000000000000e+00 1.8169999999999999e+00 0 0 0
3086 444 4 0.0000000000000000e+00 1.6560500000000000e+00 7.9297500000000003e+00 0.0000000000000000e+00 0 0 0
3087 444 4 -7.4069999999999997e-02 1.6808900000000000e+00 7.9444299999999997e+00 3.5752400000000000e+00 0 0 0
3088 444 4 0.0000000000000000e+00 3.4729999999999999e+00 7.9297500000000003e+00 1.8169999999999999e+00 0 0 0
3092 444 4 0.0000000000000000e+00 5.2898399999999999e+00 7.9297500000000003e+00 0.0000000000000000e+00 0 0 0
3093 444 4 -7.4069999999999997e-02 5.2861799999999999e+00 7.9310499999999999e+00 3.5776800000000000e+00 0 0 0
3101 444 4 -7.4069999999999997e-02 5.2686900000000003e+00 4.2842900000000004e+00 3.5771899999999999e+00 0 0 0
41 444 1 4.1499999999999998e-01 3.1059784159166761e+00 3.1854732517164970e+00 6.3631626248439188e+00 0 -2 0
40 444 2 -8.2999999999999996e-01 2.8330861934073104e+00 3.9756380793166417e+00 6.8294264403307610e+00 0 -2 0
42 444 1 4.1499999999999998e-01 3.6037926832112013e+00 4.5430249804452956e+00 6.8116376582130451e+00 0 -2 0
8 444 1 4.1499999999999998e-01 3.1561681194597990e+00 7.8647520636696489e-01 6.7137560878398963e+00 2 2 0
7 444 2 -8.2999999999999996e-01 3.8326080844958748e+00 1.4632053548315469e+00 6.7401595336289377e+00 2 2 0
2785 444 2 -8.2999999999999996e-01 4.9223339885013813e+00 5.7052247248901571e+00 7.0508120447272447e+00 -2 2 0
926 444 1 4.1499999999999998e-01 2.1494242255921323e+00 6.9930368048848965e+00 6.4013115606180593e+00 2 2 0
308 444 1 4.1499999999999998e-01 1.0731463593699586e+00 3.9442626805628103e+00 7.5696023203474674e+00 -1 2 0
9 444 1 4.1499999999999998e-01 4.6551349507007380e+00 9.8447921506567482e-01 6.6376766390371502e+00 2 2 0
2786 444 1 4.1499999999999998e-01 4.1382472910179713e+00 6.2442354199762748e+00 6.9463735972916680e+00 -2 2 0
309 444 1 4.1499999999999998e-01 1.1161382317183749e-01 4.6176886511073461e+00 6.6136483623436400e+00 -1 2 0
925 444 2 -8.2999999999999996e-01 2.9058019147746963e+00 7.4104384788922184e+00 6.8135016175117755e+00 2 2 0
2160 444 1 4.1499999999999998e-01 5.4406849764137171e+00 2.4726331657176259e+00 6.7060802723442556e+00 1 -1 0
307 444 2 -8.2999999999999996e-01 2.0568733535687564e-01 4.3466547478812583e+00 7.5268423160252365e+00 -1 2 0
927 444 1 4.1499999999999998e-01 3.2648215572846500e+00 7.9811495977334896e+00 6.1340710494791812e+00 2 2 0
83 444 1 4.1499999999999998e-01 1.7392223591301104e-02 4.2251866608435079e-01 6.3713737400390293e+00 2 -1 0
2349 444 1 4.1499999999999998e-01 1.1474396222211425e-01 5.0334157222781633e+00 9.7127999652816399e+00 4 5 0
1521 444 1 4.1499999999999998e-01 5.7403046734871932e-01 2.7986013466318451e+00 1.3370942169864085e+01 -3 0 0
1897 444 2 -8.2999999999999996e-01 5.0215095434539914e-01 2.0160187601029529e+00 1.1882000630341681e+01 0 -1 0
1497 444 1 4.1499999999999998e-01 5.0392689782392353e+00 5.5378597755180374e+00 8.8570714984656309e+00 -1 -1 0
1970 444 1 4.1499999999999998e-01 3.3787400192680810e+00 6.0126903562044394e+00 1.5767659026749229e+01 5 -4 0
3000 444 1 4.1499999999999998e-01 4.2068086767454567e+00 1.3623309403999904e+00 9.3784241077663602e+00 3 0 0
1624 444 2 -8.2999999999999996e-01 2.4579473982306626e+00 2.9538362575472683e+00 9.5812228714577010e+00 -1 -1 0
814 444 2 -8.2999999999999996e-01 2.9106728767890764e+00 5.9878010357079665e+00 1.1036348017381473e+01 -1 1 0
816 444 1 4.1499999999999998e-01 2.9665632153692432e+00 6.8642412317806727e+00 1.0655610319163655e+01 -1 1 0
97 444 2 -8.2999999999999996e-01 3.5981738360200617e+00 6.7558783033441232e+00 1.4272240468586181e+01 1 0 0
1626 444 1 4.1499999999999998e-01 2.8729065343248781e+00 3.0717401588635500e+00 8.7267404024251967e+00 -1 -1 0
1625 444 1 4.1499999999999998e-01 2.6157437828952390e+00 3.7786953974806874e+00 1.0040504825108703e+01 -1 -1 0
815 444 1 4.1499999999999998e-01 3.6689929993678496e+00 5.5234242979041168e+00 1.0682036241539370e+01 -1 1 0
327 444 1 4.1499999999999998e-01 3.5307644905136666e+00 1.7895317053889399e+00 1.1456622347666787e+01 0 2 0
879 444 1 4.1499999999999998e-01 3.0570740646462791e+00 2.2164005803293350e+00 1.5275042054484484e+01 1 -4 0
326 444 1 4.1499999999999998e-01 2.3019106590108436e+00 1.9824726754097248e+00 1.2319517484034666e+01 0 2 0
472 444 2 -8.2999999999999996e-01 7.1518101258160338e-01 5.6403956691407835e+00 1.2900453388248504e+01 -1 -1 0
473 444 1 4.1499999999999998e-01 1.3794947033075036e+00 5.5039111138184653e+00 1.2224959957295734e+01 -1 -1 0
325 444 2 -8.2999999999999996e-01 3.2099630299488884e+00 1.6814406658719396e+00 1.2351962956686153e+01 0 2 0
1310 444 1 4.1499999999999998e-01 1.9221229947240439e+00 1.2255932227895046e+00 9.2493812813121679e+00 5 -2 0
1309 444 2 -8.2999999999999996e-01 1.8697932302868436e+00 5.5752408311425294e-01 8.5658773682019707e+00 5 -2 0
1311 444 1 4.1499999999999998e-01 9.4713434206215852e-01 5.4640438816459269e-01 8.3113007368332301e+00 5 -2 0
2998 444 2 -8.2999999999999996e-01 5.1289730716808553e+00 1.2812685085549698e+00 9.6218865900512700e+00 3 0 0
862 444 2 -8.2999999999999996e-01 3.2492600024956122e+00 8.1643323138379014e+00 9.4190264019756622e+00 3 0 0
1519 444 2 -8.2999999999999996e-01 5.6670543353017833e-01 3.3817873718691245e+00 1.4129936600124640e+01 -3 0 0
99 444 1 4.1499999999999998e-01 3.6912706211328574e+00 6.4803216488339332e+00 1.3360300802853846e+01 1 0 0
905 444 1 4.1499999999999998e-01 1.3610547248945883e+00 3.4880907908147485e+00 1.5747272232614087e+01 4 -1 0
863 444 1 4.1499999999999998e-01 3.1201104181570840e+00 7.8109059616040897e+00 8.5388888030477013e+00 3 0 0
1495 444 2 -8.2999999999999996e-01 4.9911428147254391e+00 5.0844205961756357e+00 9.6986823065577141e+00 -1 -1 0
877 444 2 -8.2999999999999996e-01 3.8261572855616910e+00 1.7270235965725158e+00 1.4983060817699982e+01 1 -4 0
878 444 1 4.1499999999999998e-01 3.7495501955916275e+00 1.7063640370072710e+00 1.4029154916737097e+01 1 -4 0
1520 444 1 4.1499999999999998e-01 5.9262461423719670e-01 4.2625759685322437e+00 1.3756076123773282e+01 -3 0 0
474 444 1 4.1499999999999998e-01 7.4843187293104707e-01 6.5793401763597181e+00 1.3083509660894268e+01 -1 -1 0
1899 444 1 4.1499999999999998e-01 3.1877248422245136e-01 1.1305632521766078e+00 1.2195965159585604e+01 0 -1 0
2379 444 1 4.1499999999999998e-01 4.9455202310952835e+00 2.8775966054084425e+00 1.4804574067222465e+01 -2 2 0
98 444 1 4.1499999999999998e-01 2.8852519825625840e+00 7.3944578305525086e+00 1.4258401250881905e+01 1 0 0
2438 444 1 4.1499999999999998e-01 1.7044043369816630e+00 1.9288898993989534e-01 1.3806607624935229e+01 -4 1 0
1971 444 1 4.1499999999999998e-01 2.5494847873772861e+00 6.4058982315642101e+00 1.6971660103324922e+01 5 -4 0
906 444 1 4.1499999999999998e-01 2.4820663085781254e+00 4.0163302565484225e+00 1.6616865301410922e+01 4 -1 0
904 444 2 -8.2999999999999996e-01 1.9292675237942272e+00 3.2471625165030140e+00 1.6478927881663829e+01 4 -1 0
1969 444 2 -8.2999999999999996e-01 3.0222995107984145e+00 5.6681250619455605e+00 1.6586473294879561e+01 5 -4 0
1994 444 1 4.1499999999999998e-01 1.0136231898074430e+00 1.8974781141196582e+00 1.9316134741280255e+01 3 0 0
2392 444 2 -8.2999999999999996e-01 1.0984227993923217e+00 5.1690596714224890e+00 1.9239777871128453e+01 0 4 0
2394 444 1 4.1499999999999998e-01 1.9669544920311064e+00 4.7686127463569363e+00 1.9278865821825875e+01 0 4 0
2393 444 1 4.1499999999999998e-01 1.2223510882147557e+00 5.9603300490518976e+00 1.8715597091422527e+01 0 4 0
1993 444 2 -8.2999999999999996e-01 9.7186610060658174e-01 1.4745396165633120e+00 1.8458456652588126e+01 3 0 0
1653 444 1 4.1499999999999998e-01 3.7121310947856743e+00 2.8701976621394767e+00 1.8951409246538201e+01 0 -1 0
649 444 2 -8.2999999999999996e-01 4.1230554998447264e+00 1.3845677510134407e+00 1.7878156626349590e+01 8 -4 0
650 444 1 4.1499999999999998e-01 3.9938196176437626e+00 4.6628990325168285e-01 1.8115425159111517e+01 8 -4 0
651 444 1 4.1499999999999998e-01 3.9971216855032337e+00 1.4073454378849519e+00 1.6929550242657879e+01 8 -4 0
1651 444 2 -8.2999999999999996e-01 3.3997543260686025e+00 3.5576147010258512e+00 1.9539720758802606e+01 0 -1 0
2845 444 2 -8.2999999999999996e-01 1.8267265017551009e+00 7.8310890648187792e+00 1.7890684266706600e+01 -2 4 0
1995 444 1 4.1499999999999998e-01 1.5610493611890468e+00 1.9900783544279164e+00 1.7907715212887556e+01 3 0 0
3084 444 4 0.0000000000000000e+00 3.4729999999999999e+00 9.7467000000000006e+00 0.0000000000000000e+00 0 0 0
3085 444 4 -7.4069999999999997e-02 3.4757799999999999e+00 9.7550699999999999e+00 3.5918700000000001e+00 0 0 0
3089 444 4 0.0000000000000000e+00 1.6560500000000000e+00 9.7467000000000006e+00 1.8169999999999999e+00 0 0 0
3095 444 4 0.0000000000000000e+00 5.2898399999999999e+00 9.7467000000000006e+00 1.8169999999999999e+00 0 0 0
3108 444 4 -7.4069999999999997e-02 1.6646300000000001e+00 1.1566509999999999e+01 3.5918999999999999e+00 0 0 0
3109 444 4 0.0000000000000000e+00 3.4729999999999999e+00 1.1563549999999999e+01 1.8169999999999999e+00 0 0 0
3110 444 4 0.0000000000000000e+00 1.6560500000000000e+00 1.3380500000000000e+01 1.8169999999999999e+00 0 0 0
3113 444 4 0.0000000000000000e+00 5.2898399999999999e+00 1.1563549999999999e+01 0.0000000000000000e+00 0 0 0
3114 444 4 -7.4069999999999997e-02 5.2824900000000001e+00 1.1561480000000000e+01 3.5908300000000000e+00 0 0 0
3116 444 4 0.0000000000000000e+00 5.2898399999999999e+00 1.3380500000000000e+01 1.8169999999999999e+00 0 0 0
3119 444 4 0.0000000000000000e+00 1.6560500000000000e+00 1.1563549999999999e+01 0.0000000000000000e+00 0 0 0
3125 444 4 0.0000000000000000e+00 1.6560500000000000e+00 1.5197450000000000e+01 0.0000000000000000e+00 0 0 0
3126 444 4 -7.4069999999999997e-02 1.6548600000000000e+00 1.5200670000000001e+01 3.5781999999999998e+00 0 0 0
3127 444 4 0.0000000000000000e+00 3.4729999999999999e+00 1.5197450000000000e+01 1.8169999999999999e+00 0 0 0
3133 444 4 -7.4069999999999997e-02 3.4707200000000000e+00 1.3373889999999999e+01 3.5906400000000001e+00 0 0 0
3134 444 4 0.0000000000000000e+00 3.4729999999999999e+00 1.3380500000000000e+01 0.0000000000000000e+00 0 0 0
3135 444 4 0.0000000000000000e+00 5.2898399999999999e+00 1.5197450000000000e+01 0.0000000000000000e+00 0 0 0
3160 444 4 -7.4069999999999997e-02 5.2686900000000003e+00 1.5185790000000001e+01 3.5771899999999999e+00 0 0 0
611 444 1 4.1499999999999998e-01 3.5355499879123125e+00 1.4068164384019147e+01 6.9274288840876350e+00 -2 -1 0
612 444 1 4.1499999999999998e-01 2.4714905209675133e+00 1.5123733160841089e+01 7.1406124776140176e+00 -2 -1 0
610 444 2 -8.2999999999999996e-01 2.6398297228868080e+00 1.4187064946546977e+01 7.2433082626171466e+00 -2 -1 0
2689 444 2 -8.2999999999999996e-01 5.7386838157699671e-01 9.1906503287845336e+00 6.8425586758047929e+00 -3 1 0
2227 444 2 -8.2999999999999996e-01 7.5690988160992267e-01 1.1794517945239512e+01 7.0436105536519298e+00 0 -1 0
2691 444 1 4.1499999999999998e-01 4.0777324207637528e-01 1.0131275484238470e+01 6.9047571204931009e+00 -3 1 0
2114 444 1 4.1499999999999998e-01 2.9429353473631692e+00 1.1545086572971041e+01 6.5539665635892694e+00 1 0 0
2115 444 1 4.1499999999999998e-01 4.4089532011798758e+00 1.1910402863218485e+01 6.6500443735550538e+00 1 0 0
2113 444 2 -8.2999999999999996e-01 3.7386218713360218e+00 1.1357864087165876e+01 7.0520256038229672e+00 1 0 0
2229 444 1 4.1499999999999998e-01 1.3243967628532891e+00 1.2549751949308163e+01 6.8892969507564885e+00 0 -1 0
2690 444 1 4.1499999999999998e-01 1.5130851560977412e+00 9.1015835644804834e+00 7.0043328184881100e+00 -3 1 0
2979 444 1 4.1499999999999998e-01 4.4370798494512376e-01 1.5347661140576724e+01 6.5408999036652782e+00 2 -1 0
1138 444 2 -8.2999999999999996e-01 5.2106263230176832e+00 1.4182308867589034e+01 6.7247381481918973e+00 -2 -1 0
1715 444 1 4.1499999999999998e-01 5.1065038218537042e+00 9.5027575578293781e+00 7.4404192227823760e+00 0 5 0
794 444 1 4.1499999999999998e-01 4.9836695598545564e+00 1.6301398791934588e+01 6.5049317272975982e+00 3 -1 0
1781 444 1 4.1499999999999998e-01 1.0739909130002885e+00 8.8960789505072384e+00 1.3103918666347070e+01 5 1 0
2198 444 1 4.1499999999999998e-01 7.1463784467210234e-01 1.0428485187438268e+01 9.2503228909559052e+00 -5 2 0
1782 444 1 4.1499999999999998e-01 2.5215341933180921e+00 8.9278328902898458e+00 1.2661758461681242e+01 5 1 0
1004 444 1 4.1499999999999998e-01 1.9924630220817732e+00 1.3718197874797156e+01 1.2854526913107838e+01 -1 1 0
1209 444 1 4.1499999999999998e-01 5.4789859566224541e-01 1.4183485031216188e+01 8.7441212037275200e+00 0 -2 0
1207 444 2 -8.2999999999999996e-01 8.0544347846974584e-01 1.3597016947477096e+01 9.4554282255397091e+00 0 -2 0
292 444 2 -8.2999999999999996e-01 3.7171420297309741e+00 1.0421403238878954e+01 1.2202214554669430e+01 1 -2 0
293 444 1 4.1499999999999998e-01 3.6946796180315862e+00 1.0882535190986946e+01 1.1363712796250901e+01 1 -2 0
1208 444 1 4.1499999999999998e-01 1.7564957842732203e+00 1.3524928935249848e+01 9.3745908000071143e+00 0 -2 0
2197 444 2 -8.2999999999999996e-01 1.5828424263609064e+00 1.0173400817922444e+01 9.5623888931775731e+00 -5 2 0
294 444 1 4.1499999999999998e-01 3.0153772853319851e+00 1.0822032135766701e+01 1.2715298303287437e+01 1 -2 0
864 444 1 4.1499999999999998e-01 2.6745634439252846e+00 8.9288494643209937e+00 9.4573580560993644e+00 3 0 0
1003 444 2 -8.2999999999999996e-01 1.3151378285395523e+00 1.3117561663694987e+01 1.2543562720140025e+01 -1 1 0
443 444 1 4.1499999999999998e-01 1.3947726710926751e+00 1.1761111725163770e+01 1.3411302693496712e+01 -1 2 0
442 444 2 -8.2999999999999996e-01 1.4382039397201494e+00 1.1004748681729529e+01 1.3996333196869029e+01 -1 2 0
2199 444 1 4.1499999999999998e-01 2.0523355558103202e+00 1.1000762043569351e+01 9.6686043702197377e+00 -5 2 0
1459 444 2 -8.2999999999999996e-01 3.1960449156757686e+00 1.4919335117155695e+01 1.3303044707572734e+01 0 -2 0
76 444 2 -8.2999999999999996e-01 5.3080917786023267e+00 1.0493043406027459e+01 1.4507734938945353e+01 1 5 0
870 444 1 4.1499999999999998e-01 3.9128494660206670e+00 1.1732480581916329e+01 8.6578997061761829e+00 -6 -1 0
78 444 1 4.1499999999999998e-01 4.7239432710633853e+00 1.0202259889340333e+01 1.3807414654396158e+01 1 5 0
2318 444 1 4.1499999999999998e-01 3.2976677211899523e+00 9.8106059711815945e+00 1.5958642124334995e+01 -3 5 0
1005 444 1 4.1499999999999998e-01 7.4956619738570573e-01 1.3658318153225197e+01 1.1992252440861868e+01 -1 1 0
1151 444 1 4.1499999999999998e-01 5.2678463074111850e+00 1.3129290365908798e+01 1.4524653955373262e+01 -5 2 0
2317 444 2 -8.2999999999999996e-01 2.7286826615538033e+00 9.0589674124658579e+00 1.5792727543873815e+01 -3 5 0
869 444 1 4.1499999999999998e-01 4.7150563530228959e+00 1.2627005688263260e+01 9.5788691351928215e+00 -6 -1 0
868 444 2 -8.2999999999999996e-01 4.1633208700315327e+00 1.1844826656177666e+01 9.5748918519736801e+00 -6 -1 0
3015 444 1 4.1499999999999998e-01 4.0779150180992513e-01 1.5253701134023242e+01 1.5987976720111831e+01 -1 4 0
1461 444 1 4.1499999999999998e-01 3.1965813723556002e+00 1.5688927123313370e+01 1.2733869750036938e+01 0 -2 0
365 444 1 4.1499999999999998e-01 2.5765303083779876e+00 1.2597033975150534e+01 1.4803757182293444e+01 -2 -3 0
2319 444 1 4.1499999999999998e-01 2.2710963690853156e+00 9.2788606383971803e+00 1.4981250882594015e+01 -3 5 0
444 444 1 4.1499999999999998e-01 5.2882648818365097e-01 1.0843236277923843e+01 1.4247686108912095e+01 -1 2 0
1460 444 1 4.1499999999999998e-01 3.5821495010978506e+00 1.5227059863552920e+01 1.4123082172729696e+01 0 -2 0
364 444 2 -8.2999999999999996e-01 2.9551315900640658e+00 1.2897449104733020e+01 1.5629979754007483e+01 -2 -3 0
366 444 1 4.1499999999999998e-01 2.3190531510823305e+00 1.3526302802369264e+01 1.5970830581691240e+01 -2 -3 0
1780 444 2 -8.2999999999999996e-01 1.8683079890461505e+00 8.3627701307490216e+00 1.3074350158946631e+01 5 1 0
518 444 1 4.1499999999999998e-01 4.7925415097137281e+00 9.0433170504880245e+00 1.0200542160453491e+01 -3 -3 0
1756 444 2 -8.2999999999999996e-01 4.6159517755349748e+00 1.6282861913494788e+01 1.5251415582460597e+01 2 -1 0
519 444 1 4.1499999999999998e-01 5.3726171054939034e+00 1.0419424419689610e+01 1.0449009944445978e+01 -3 -3 0
1406 444 1 4.1499999999999998e-01 5.3473148179109300e+00 1.6317557097528677e+01 9.4921220923575511e+00 -2 -6 0
1481 444 1 4.1499999999999998e-01 5.2955428655786205e+00 9.7436686077564900e+00 1.7905625088277354e+01 4 1 0
2847 444 1 4.1499999999999998e-01 2.0304331830914832e+00 8.3757255604052041e+00 1.7130351086368361e+01 -2 4 0
1480 444 2 -8.2999999999999996e-01 5.2704673402245756e+00 8.7969723880207944e+00 1.8044804462146434e+01 4 1 0
1092 444 1 4.1499999999999998e-01 2.5214176567725719e+00 1.5787779572583933e+01 1.8170690745980288e+01 1 -1 0
3013 444 2 -8.2999999999999996e-01 1.0953092381492933e+00 1.4706752013011153e+01 1.6367973954204935e+01 -1 4 0
3014 444 1 4.1499999999999998e-01 1.6419963630046388e+00 1.5317434484829874e+01 1.6862374580015487e+01 -1 4 0
768 444 1 4.1499999999999998e-01 2.3438456477108103e+00 1.3582153718343768e+01 1.9229001571593201e+01 1 -3 0
2976 444 1 4.1499999999999998e-01 2.9741723331249195e+00 9.9669808671562166e+00 1.9804860611956453e+01 1 0 0
2846 444 1 4.1499999999999998e-01 2.2880363775807484e+00 8.2506219472469660e+00 1.8616919295597224e+01 -2 4 0
766 444 2 -8.2999999999999996e-01 2.6623880747128097e+00 1.2922538013113840e+01 1.8612828045465516e+01 1 -3 0
767 444 1 4.1499999999999998e-01 2.1370020852312503e+00 1.3057311364632547e+01 1.7824134428910718e+01 1 -3 0
2053 444 2 -8.2999999999999996e-01 5.0437032713808794e+00 1.2425729979398113e+01 1.9384015197503938e+01 1 -1 0
790 444 2 -8.2999999999999996e-01 4.8678032056688512e+00 1.1320115740110683e+01 1.6921440062767154e+01 1 0 0
792 444 1 4.1499999999999998e-01 4.4117501224216014e+00 1.2083513841651875e+01 1.6567221353690094e+01 1 0 0
2054 444 1 4.1499999999999998e-01 4.1766941317704580e+00 1.2808857767343945e+01 1.9250822268229644e+01 1 -1 0
1482 444 1 4.1499999999999998e-01 4.5866379390233076e+00 8.6690939342239854e+00 1.8702267558190812e+01 4 1 0
2974 444 2 -8.2999999999999996e-01 3.1515372079503967e+00 9.0342777757448065e+00 1.9926675148537036e+01 1 0 0
791 444 1 4.1499999999999998e-01 5.2019316368774033e+00 1.0861201813209503e+01 1.6150733793118945e+01 1 0 0
2055 444 1 4.1499999999999998e-01 5.2100792921707173e+00 1.1925010021477021e+01 1.8585372315511229e+01 1 -1 0
1090 444 2 -8.2999999999999996e-01 2.8309163044069008e+00 1.6338397646369344e+01 1.7451481291384518e+01 1 -1 0
3123 444 4 0.0000000000000000e+00 3.4729999999999999e+00 1.7014299999999999e+01 0.0000000000000000e+00 0 0 0
3124 444 4 -7.4069999999999997e-02 3.4714800000000001e+00 1.7015360000000001e+01 3.5847199999999999e+00 0 0 0
3128 444 4 0.0000000000000000e+00 1.6560500000000000e+00 1.7014299999999999e+01 1.8169999999999999e+00 0 0 0
3136 444 4 0.0000000000000000e+00 5.2898399999999999e+00 1.7014299999999999e+01 1.8169999999999999e+00 0 0 0
3143 444 4 0.0000000000000000e+00 3.4729999999999999e+00 2.0648199999999999e+01 0.0000000000000000e+00 0 0 0
3144 444 4 -7.4069999999999997e-02 3.4757799999999999e+00 2.0656569999999999e+01 3.5918700000000001e+00 0 0 0
3145 444 4 0.0000000000000000e+00 1.6560500000000000e+00 1.8831250000000001e+01 0.0000000000000000e+00 0 0 0
3146 444 4 -7.4069999999999997e-02 1.6808900000000000e+00 1.8845929999999999e+01 3.5752400000000000e+00 0 0 0
3147 444 4 0.0000000000000000e+00 3.4729999999999999e+00 1.8831250000000001e+01 1.8169999999999999e+00 0 0 0
3148 444 4 0.0000000000000000e+00 1.6560500000000000e+00 2.0648199999999999e+01 1.8169999999999999e+00 0 0 0
3151 444 4 0.0000000000000000e+00 5.2898399999999999e+00 1.8831250000000001e+01 0.0000000000000000e+00 0 0 0
3152 444 4 -7.4069999999999997e-02 5.2861799999999999e+00 1.8832550000000001e+01 3.5776800000000000e+00 0 0 0
3154 444 4 0.0000000000000000e+00 5.2898399999999999e+00 2.0648199999999999e+01 1.8169999999999999e+00 0 0 0
3167 444 4 -7.4069999999999997e-02 1.6646300000000001e+00 2.2468010000000000e+01 3.5918999999999999e+00 0 0 0
3168 444 4 0.0000000000000000e+00 3.4729999999999999e+00 2.2465050000000002e+01 1.8169999999999999e+00 0 0 0
3169 444 4 0.0000000000000000e+00 1.6560500000000000e+00 2.4282000000000000e+01 1.8169999999999999e+00 0 0 0
3172 444 4 0.0000000000000000e+00 5.2898399999999999e+00 2.2465050000000002e+01 0.0000000000000000e+00 0 0 0
3173 444 4 -7.4069999999999997e-02 5.2824900000000001e+00 2.2462980000000002e+01 3.5908300000000000e+00 0 0 0
3175 444 4 0.0000000000000000e+00 5.2898399999999999e+00 2.4282000000000000e+01 1.8169999999999999e+00 0 0 0
3178 444 4 0.0000000000000000e+00 1.6560500000000000e+00 2.2465050000000002e+01 0.0000000000000000e+00 0 0 0
3192 444 4 -7.4069999999999997e-02 3.4707200000000000e+00 2.4275390000000002e+01 3.5906400000000001e+00 0 0 0
3193 444 4 0.0000000000000000e+00 3.4729999999999999e+00 2.4282000000000000e+01 0.0000000000000000e+00 0 0 0
1639 444 2 -8.2999999999999996e-01 6.8622314323462874e-01 1.9613286653618680e+01 6.6245706450623265e+00 1 -2 0
1640 444 1 4.1499999999999998e-01 1.6139818645536887e+00 1.9715479741313423e+01 6.4123147360786152e+00 1 -2 0
2916 444 1 4.1499999999999998e-01 2.6371116188563200e+00 2.1710220690082060e+01 6.9776061718086986e+00 4 -1 0
2914 444 2 -8.2999999999999996e-01 2.4312105196889653e+00 2.2631204256259608e+01 7.1376873642231011e+00 4 -1 0
1641 444 1 4.1499999999999998e-01 3.7172480216708886e-01 2.0506783861532952e+01 6.7623591114286583e+00 1 -2 0
1263 444 1 4.1499999999999998e-01 4.1025678121494451e+00 2.0545594387112853e+01 6.3429491460966076e+00 2 2 0
1261 444 2 -8.2999999999999996e-01 3.2956156586053469e+00 2.0044245533797461e+01 6.4600365885245647e+00 2 2 0
1262 444 1 4.1499999999999998e-01 3.5711353155517074e+00 1.9129317206622559e+01 6.4032300842584764e+00 2 2 0
2915 444 1 4.1499999999999998e-01 2.7292137250707063e+00 2.3084344952462761e+01 6.3489607261008105e+00 4 -1 0
600 444 1 4.1499999999999998e-01 1.4620398290532830e+00 1.7951424265027462e+01 6.7756948977339677e+00 -1 1 0
156 444 1 4.1499999999999998e-01 5.2707086872063220e-02 2.2414155545208878e+01 6.6452854198111284e+00 1 0 0
793 444 2 -8.2999999999999996e-01 4.6027289767712345e+00 1.7176684721229059e+01 6.4342840500813283e+00 3 -1 0
599 444 1 4.1499999999999998e-01 2.9005126263143981e+00 1.7481363090293556e+01 6.8173492959219431e+00 -1 1 0
2575 444 2 -8.2999999999999996e-01 5.3815720338057220e+00 2.4338362207417234e+01 6.6128221565643903e+00 -1 0 0
795 444 1 4.1499999999999998e-01 5.3567728763694484e+00 1.7760842788113937e+01 6.3542253656980074e+00 3 -1 0
598 444 2 -8.2999999999999996e-01 2.0703221297182410e+00 1.7420577273608782e+01 7.2899188486761721e+00 -1 1 0
2010 444 1 4.1499999999999998e-01 5.2522658704657461e+00 2.1862538198038123e+01 7.7018422691730670e+00 -5 -1 0
1365 444 1 4.1499999999999998e-01 2.0885774291030179e+00 2.2758571585458224e+01 8.9819336257085656e+00 -1 5 0
1227 444 1 4.1499999999999998e-01 3.8801166251928770e-01 1.9974300718685949e+01 1.2690117139766519e+01 3 1 0
412 444 2 -8.2999999999999996e-01 2.5094620306221360e+00 1.7906325186006420e+01 1.3052759123541648e+01 -2 4 0
732 444 1 4.1499999999999998e-01 2.0077346713155757e+00 2.3180146616933495e+01 1.5296118220377686e+01 -2 -1 0
730 444 2 -8.2999999999999996e-01 1.0897811591066435e+00 2.3016955718889740e+01 1.5512825852088215e+01 -2 -1 0
1352 444 1 4.1499999999999998e-01 2.3147698832911168e+00 2.0371029752723199e+01 9.3847647922719215e+00 -1 -2 0
1278 444 1 4.1499999999999998e-01 4.0567325025629568e+00 1.8439674132024656e+01 1.0070496050363060e+01 -2 -2 0
1363 444 2 -8.2999999999999996e-01 1.8221968071960042e+00 2.3301138922854175e+01 9.7241562669353545e+00 -1 5 0
1353 444 1 4.1499999999999998e-01 1.3102632151666120e+00 1.9509070994016565e+01 8.6499933322903271e+00 -1 -2 0
1351 444 2 -8.2999999999999996e-01 1.3923577487663679e+00 2.0115320479936273e+01 9.3861688272613044e+00 -1 -2 0
1276 444 2 -8.2999999999999996e-01 4.0847813314920529e+00 1.7720604570237672e+01 1.0701673094726491e+01 -2 -2 0
1277 444 1 4.1499999999999998e-01 3.6003983108449380e+00 1.8047647303512914e+01 1.1459729762134737e+01 -2 -2 0
511 444 2 -8.2999999999999996e-01 4.4566410524368196e+00 2.1811302111011909e+01 1.4032187019439839e+01 0 -1 0
1014 444 1 4.1499999999999998e-01 4.4369894776691743e-01 2.1853186849999290e+01 1.4078607851875526e+01 1 1 0
1225 444 2 -8.2999999999999996e-01 3.2119629007005746e-01 1.9113508483742503e+01 1.2276831959512625e+01 3 1 0
413 444 1 4.1499999999999998e-01 2.7306035298513529e+00 1.8272623415102650e+01 1.3909003219194933e+01 -2 4 0
1230 444 1 4.1499999999999998e-01 4.1391922260625913e+00 2.1526396549569355e+01 9.8619609481065957e+00 0 2 0
1228 444 2 -8.2999999999999996e-01 4.0236072891922721e+00 2.0634335454728173e+01 9.5347004083347056e+00 0 2 0
1226 444 1 4.1499999999999998e-01 4.8675330878436740e-01 1.9279377937299941e+01 1.1348764021395745e+01 3 1 0
1364 444 1 4.1499999999999998e-01 2.6419055097604662e+00 2.3655284417148351e+01 1.0068961692794423e+01 -1 5 0
414 444 1 4.1499999999999998e-01 1.7224038358918645e+00 1.8380653105593094e+01 1.2784833218175965e+01 -2 4 0
1835 444 1 4.1499999999999998e-01 2.5504262700065373e-02 1.6584379665577995e+01 1.0421632914299392e+01 2 -2 0
512 444 1 4.1499999999999998e-01 5.1881896634176714e+00 2.1295501555183570e+01 1.3693042700789533e+01 0 -1 0
513 444 1 4.1499999999999998e-01 4.8690676894691407e+00 2.2491661344180294e+01 1.4564397096731250e+01 0 -1 0
2423 444 1 4.1499999999999998e-01 3.1772323926097501e+00 2.0610332095112696e+01 1.4818888748283634e+01 0 -3 0
2422 444 2 -8.2999999999999996e-01 2.9158249380848140e+00 1.9820557226916939e+01 1.5292338652466780e+01 0 -3 0
207 444 1 4.1499999999999998e-01 1.3045715989309044e+00 1.9356891584470123e+01 1.5992511232294877e+01 1 0 0
1917 444 1 4.1499999999999998e-01 1.8181178434975140e+00 1.6872168008012068e+01 8.8276492655034069e+00 1 -3 0
1915 444 2 -8.2999999999999996e-01 1.8390532017901373e+00 1.6539847808692198e+01 9.7250660988471864e+00 1 -3 0
2424 444 1 4.1499999999999998e-01 3.7340296117692091e+00 1.9345042825134779e+01 1.5436072268591246e+01 0 -3 0
1012 444 2 -8.2999999999999996e-01 2.8878005556823483e-01 2.1588315567959551e+01 1.3171924176998626e+01 1 1 0
1013 444 1 4.1499999999999998e-01 2.1280727027394108e-01 2.2412332529356725e+01 1.2690825283569852e+01 1 1 0
2514 444 1 4.1499999999999998e-01 1.3700929787911059e-01 2.3690979018533650e+01 1.1314780005395773e+01 -3 2 0
1757 444 1 4.1499999999999998e-01 5.4202139787986985e+00 1.6722610711328254e+01 1.5527124695860307e+01 2 -1 0
1229 444 1 4.1499999999999998e-01 4.8957231250508348e+00 2.0243661826146699e+01 9.5896592967995318e+00 0 2 0
205 444 2 -8.2999999999999996e-01 3.8746112447511438e-01 1.9083050198557832e+01 1.5980174860300162e+01 1 0 0
1916 444 1 4.1499999999999998e-01 2.7343690643845457e+00 1.6704280314955707e+01 1.0021044782801809e+01 1 -3 0
1704 444 1 4.1499999999999998e-01 5.4096312404300493e+00 1.7189921961833733e+01 1.3185765961868995e+01 4 4 0
1703 444 1 4.1499999999999998e-01 5.4143338509540895e+00 1.7558768660789891e+01 1.1717492990526925e+01 4 4 0
2057 444 1 4.1499999999999998e-01 5.0935742201108880e-01 2.4300250995901827e+01 8.8052939895414504e+00 1 -1 0
1758 444 1 4.1499999999999998e-01 4.0118155179754442e+00 1.6406380674864117e+01 1.5983532595894422e+01 2 -1 0
2408 444 1 4.1499999999999998e-01 2.5433177760419684e-01 1.8525710415597480e+01 1.9201499902589951e+01 2 0 0
731 444 1 4.1499999999999998e-01 8.1761985240626966e-01 2.3792246243540085e+01 1.6003830068142967e+01 -2 -1 0