LAMMPS data file via write_data, version 11 Aug 2017, timestep = 1000000

3552 atoms
10 atom types
2024 bonds
5 bond types
1018 angles
5 angle types
12 dihedrals
4 dihedral types
9 impropers
1 improper types

0.0000000000000000e+00 3.2704500000000003e+01 xlo xhi
0.0000000000000000e+00 3.2704500000000003e+01 ylo yhi
0.0000000000000000e+00 8.0000000000000000e+01 zlo zhi

Masses

1 1.0079
2 15.9994
3 39.0983
4 63.546
5 12.011
6 12.011
7 15.9994
8 15.9994
9 15.9994
10 1.0079

Bond Coeffs # harmonic

1 450 0.9572
2 570 1.229
3 450 1.364
4 570 1.229
5 553 0.945

Angle Coeffs # harmonic

1 100 123.32
2 85 124
3 55 104.52
4 35 113
5 100 123.32

Dihedral Coeffs # charmm

1 0.922 1 180 0
2 3.741 2 0 0
3 0.922 1 0 0
4 3.741 2 180 0

Improper Coeffs # umbrella

1 21 0

Atoms # full

3049 444 4 -7.4069999999999997e-02 1.6759900000000001e+00 6.6491000000000000e-01 3.5991800000000000e+00 0 0 0
3051 444 4 0.0000000000000000e+00 1.6560500000000000e+00 2.4790000000000001e+00 1.8169999999999999e+00 0 0 0
3060 444 4 0.0000000000000000e+00 1.6560500000000000e+00 6.6205000000000003e-01 0.0000000000000000e+00 0 0 0
1681 444 2 -8.2999999999999996e-01 2.1071204319440162e-01 1.8938484033086107e+00 7.1091556959643789e+00 -2 4 0
1682 444 1 4.1499999999999998e-01 9.4009075307438594e-01 2.2548556751371351e+00 6.6052584053547694e+00 -2 4 0
2742 444 1 4.1499999999999998e-01 6.4513754292864212e-01 1.9296431463703756e+00 8.7345009860241198e+00 3 -1 0
791 444 1 4.1499999999999998e-01 1.8185083421178336e+00 1.1736920945662328e+00 1.0848862296245432e+01 -1 -2 0
2740 444 2 -8.2999999999999996e-01 8.1697634658979890e-01 2.0131894673912560e+00 9.6724366714450003e+00 3 -1 0
2741 444 1 4.1499999999999998e-01 1.3991080540224667e+00 2.7697150569102997e+00 9.7433135373903408e+00 3 -1 0
338 444 1 4.1499999999999998e-01 1.5660620653824058e+00 6.9010265214726851e-01 1.3407464782120142e+01 4 2 0
2670 444 1 4.1499999999999998e-01 9.3558674440343648e-01 3.0174491087854070e+00 1.6018234820705143e+01 2 -1 0
2668 444 2 -8.2999999999999996e-01 1.8650256631509772e+00 2.8191388424589947e+00 1.6132463516359568e+01 2 -1 0
3066 444 4 0.0000000000000000e+00 1.6560500000000000e+00 4.2959500000000004e+00 0.0000000000000000e+00 0 0 0
3067 444 4 -7.4069999999999997e-02 1.6715400000000000e+00 4.2823799999999999e+00 3.5709300000000002e+00 0 0 0
3069 444 4 0.0000000000000000e+00 1.6560500000000000e+00 6.1128000000000000e+00 1.8169999999999999e+00 0 0 0
3086 444 4 0.0000000000000000e+00 1.6560500000000000e+00 7.9297500000000003e+00 0.0000000000000000e+00 0 0 0
3087 444 4 -7.4069999999999997e-02 1.6941700000000000e+00 7.9573700000000001e+00 3.5718200000000002e+00 0 0 0
227 444 1 4.1499999999999998e-01 9.8397777600440522e-02 6.5181928509228326e+00 7.7615396979066844e+00 5 3 0
226 444 2 -8.2999999999999996e-01 4.0190136588042269e-01 7.0567170680616194e+00 7.0307118351735038e+00 5 3 0
2365 444 2 -8.2999999999999996e-01 1.1090034255550294e+00 5.8076746651044919e+00 1.1468353123994868e+01 -3 4 0
2367 444 1 4.1499999999999998e-01 1.7182859282125573e+00 5.7598021875687282e+00 1.0731661538663873e+01 -3 4 0
2366 444 1 4.1499999999999998e-01 2.8163058741964275e-01 5.4783685766421968e+00 1.1117292549450807e+01 -3 4 0
2888 444 1 4.1499999999999998e-01 1.6082787361610587e+00 7.6888780107821599e+00 1.1154181435011603e+01 -2 -3 0
654 444 1 4.1499999999999998e-01 4.9758129876849945e-02 5.8199700422589045e+00 1.3401382426913644e+01 -1 -2 0
872 444 1 4.1499999999999998e-01 1.6637279400157643e+00 6.4920672549059111e+00 1.8961919519589639e+01 0 -1 0
428 444 1 4.1499999999999998e-01 1.9203533028371593e+00 4.6099356971066134e+00 1.6197218847085853e+01 1 0 0
871 444 2 -8.2999999999999996e-01 1.1469535352075126e+00 5.6923170219896013e+00 1.9059774738560840e+01 0 -1 0
873 444 1 4.1499999999999998e-01 4.3161357135043327e-01 5.7904235739561978e+00 1.8431367599147329e+01 0 -1 0
427 444 2 -8.2999999999999996e-01 2.0354601028783366e+00 5.5598034417403204e+00 1.6224317349868880e+01 1 0 0
3089 444 4 0.0000000000000000e+00 1.6560500000000000e+00 9.7467000000000006e+00 1.8169999999999999e+00 0 0 0
3105 444 4 -7.4069999999999997e-02 1.6759900000000001e+00 1.1566409999999999e+01 3.5991800000000000e+00 0 0 0
3116 444 4 0.0000000000000000e+00 1.6560500000000000e+00 1.1563549999999999e+01 0.0000000000000000e+00 0 0 0
837 444 1 4.1499999999999998e-01 6.0634738993887649e-01 1.0101957802637541e+01 6.8169135086262207e+00 -2 -1 0
836 444 1 4.1499999999999998e-01 5.2321808191754795e-03 8.7429822155063928e+00 7.1062945982125756e+00 -2 -1 0
904 444 2 -8.2999999999999996e-01 9.8008520275179556e-01 1.0597125484030924e+01 1.3571544165196373e+01 4 -5 0
2887 444 2 -8.2999999999999996e-01 1.9061068219054629e+00 8.5542714602806509e+00 1.1434582508404983e+01 -2 -3 0
74 444 1 4.1499999999999998e-01 1.5490695513367772e+00 1.1906673927304015e+01 9.6029930905952590e+00 3 1 0
3026 444 1 4.1499999999999998e-01 2.1278517470925395e-01 1.2006851020315935e+01 1.4432434612856714e+01 -2 -1 0
905 444 1 4.1499999999999998e-01 1.4609705400424264e+00 1.0261358039725886e+01 1.2815077390183196e+01 4 -5 0
906 444 1 4.1499999999999998e-01 1.1841542399968497e-01 1.0184780346226288e+01 1.3510474403857437e+01 4 -5 0
2889 444 1 4.1499999999999998e-01 1.9197368054174910e+00 9.0751880045576776e+00 1.0631654815467666e+01 -2 -3 0
2266 444 2 -8.2999999999999996e-01 1.5056969104695652e+00 1.2249858632458755e+01 1.9320948260382082e+01 -3 -3 0
1244 444 1 4.1499999999999998e-01 6.2122640171122834e-01 8.4424200816178345e+00 1.6248126659872408e+01 -2 3 0
3107 444 4 0.0000000000000000e+00 1.6560500000000000e+00 1.3380500000000000e+01 1.8169999999999999e+00 0 0 0
3122 444 4 0.0000000000000000e+00 1.6560500000000000e+00 1.5197450000000000e+01 0.0000000000000000e+00 0 0 0
3123 444 4 -7.4069999999999997e-02 1.6715400000000000e+00 1.5183880000000000e+01 3.5709300000000002e+00 0 0 0
2945 444 1 4.1499999999999998e-01 9.3944775344875686e-01 1.3132303771092772e+01 6.4895029933348782e+00 -4 1 0
2944 444 2 -8.2999999999999996e-01 1.7294823286017926e+00 1.3569716873999024e+01 6.8069098088417004e+00 -4 1 0
323 444 1 4.1499999999999998e-01 1.5868701897152850e+00 1.5698958884857186e+01 6.4004827780337905e+00 3 -2 0
73 444 2 -8.2999999999999996e-01 1.0935305728824134e+00 1.2738411247511328e+01 9.4728810961908447e+00 3 1 0
3027 444 1 4.1499999999999998e-01 4.2955806680397551e-01 1.2652950034940483e+01 1.5784270684196327e+01 -2 -1 0
75 444 1 4.1499999999999998e-01 1.0837671644703086e+00 1.2860748971082414e+01 8.5235813625677821e+00 3 1 0
2055 444 1 4.1499999999999998e-01 1.8206353394396775e+00 1.4588777384347793e+01 1.3051004552048413e+01 -7 2 0
805 444 2 -8.2999999999999996e-01 3.1338979008727175e-01 1.5684672091763936e+01 1.2257138934997240e+01 4 -5 0
862 444 1 4.1499999999999998e-01 1.9992812417249259e+00 1.6265673680836777e+01 1.5694751188517181e+01 4 1 0
869 444 1 4.1499999999999998e-01 1.5517741664154978e+00 1.4023809967672747e+01 1.7004218696980701e+01 -2 -1 0
859 444 2 -8.2999999999999996e-01 1.4652501294574511e+00 1.5960627731443136e+01 1.6428229247341903e+01 4 1 0
868 444 2 -8.2999999999999996e-01 1.5636801575730759e+00 1.3073049385182303e+01 1.6894014598915323e+01 -2 -1 0
870 444 1 4.1499999999999998e-01 1.6170593092298320e+00 1.2728765233532346e+01 1.7785559711014216e+01 -2 -1 0
2414 444 1 4.1499999999999998e-01 1.0105376033035449e-01 1.5754768959593640e+01 1.9926486611942465e+01 1 -1 0
3125 444 4 0.0000000000000000e+00 1.6560500000000000e+00 1.7014299999999999e+01 1.8169999999999999e+00 0 0 0
3142 444 4 0.0000000000000000e+00 1.6560500000000000e+00 1.8831250000000001e+01 0.0000000000000000e+00 0 0 0
3143 444 4 -7.4069999999999997e-02 1.6941700000000000e+00 1.8858870000000000e+01 3.5718200000000002e+00 0 0 0
2083 444 2 -8.2999999999999996e-01 6.4227536616758119e-01 1.9154643824119550e+01 6.9574210341320146e+00 1 1 0
2085 444 1 4.1499999999999998e-01 3.5834692070153845e-01 2.0066059119066576e+01 7.0277032380426236e+00 1 1 0
2084 444 1 4.1499999999999998e-01 3.9588736630667309e-01 1.8894287389623983e+01 6.0698739982399497e+00 1 1 0
322 444 2 -8.2999999999999996e-01 2.0010520975287709e+00 1.6391867576876255e+01 6.9148394083802494e+00 3 -2 0
1750 444 2 -8.2999999999999996e-01 1.3405353108794273e+00 1.8313914021477867e+01 1.2561811903981340e+01 1 1 0
1752 444 1 4.1499999999999998e-01 1.8660420681991530e+00 1.8780334716914520e+01 1.3211831954006596e+01 1 1 0
806 444 1 4.1499999999999998e-01 5.1817654256462709e-01 1.6610040001211509e+01 1.2123016669774422e+01 4 -5 0
242 444 1 4.1499999999999998e-01 2.8805014568885406e-01 1.7771559692033104e+01 8.1057443491468746e+00 3 1 0
1751 444 1 4.1499999999999998e-01 1.4509929508729258e+00 1.8819323046461598e+01 1.1756459442567891e+01 1 1 0
2516 444 1 4.1499999999999998e-01 6.9121276018040489e-01 1.9899267573865938e+01 1.7091243238678491e+01 4 -2 0
863 444 1 4.1499999999999998e-01 1.1021285114406443e+00 1.6760012668423180e+01 1.6809489547676211e+01 4 1 0
3145 444 4 0.0000000000000000e+00 1.6560500000000000e+00 2.0648199999999999e+01 1.8169999999999999e+00 0 0 0
3161 444 4 -7.4069999999999997e-02 1.6759900000000001e+00 2.2467910000000000e+01 3.5991800000000000e+00 0 0 0
3163 444 4 0.0000000000000000e+00 1.6560500000000000e+00 2.4282000000000000e+01 1.8169999999999999e+00 0 0 0
3172 444 4 0.0000000000000000e+00 1.6560500000000000e+00 2.2465050000000002e+01 0.0000000000000000e+00 0 0 0
1931 444 1 4.1499999999999998e-01 4.4846713486483819e-01 2.1842394663411042e+01 7.3237823782634157e+00 -1 1 0
2018 444 1 4.1499999999999998e-01 2.5017407195766306e-01 2.4020995126137830e+01 1.0296197650432589e+01 -1 0 0
2433 444 1 4.1499999999999998e-01 8.6081436108857134e-01 2.2299845286817355e+01 1.2382499124482671e+01 1 1 0
1669 444 2 -8.2999999999999996e-01 3.6229952614932665e-01 2.1351816956286871e+01 9.6355138371051847e+00 1 3 0
2517 444 1 4.1499999999999998e-01 5.1236118522458629e-01 2.0771603150404545e+01 1.5866931982362198e+01 4 -2 0
2431 444 2 -8.2999999999999996e-01 4.5982495869534491e-02 2.2688567547177872e+01 1.2700580420195491e+01 1 1 0
1670 444 1 4.1499999999999998e-01 5.2534104518054070e-01 2.0450764481144365e+01 9.9143578873684319e+00 1 3 0
2515 444 2 -8.2999999999999996e-01 1.1632595166996718e+00 2.0499165620169588e+01 1.6513725586460946e+01 4 -2 0
1199 444 1 4.1499999999999998e-01 1.4222778326818981e+00 2.3206355951358066e+01 1.6922443375611671e+01 -2 -2 0
3178 444 4 0.0000000000000000e+00 1.6560500000000000e+00 2.6098949999999999e+01 0.0000000000000000e+00 0 0 0
3179 444 4 -7.4069999999999997e-02 1.6715400000000000e+00 2.6085370000000001e+01 3.5709300000000002e+00 0 0 0
3181 444 4 0.0000000000000000e+00 1.6560500000000000e+00 2.7915800000000001e+01 1.8169999999999999e+00 0 0 0
1481 444 1 4.1499999999999998e-01 1.4608967511430686e+00 2.5448227326842716e+01 6.8494998254598611e+00 -6 4 0
1685 444 1 4.1499999999999998e-01 5.2958716856644539e-01 2.6612588047265376e+01 8.0100326056493873e+00 1 1 0
732 444 1 4.1499999999999998e-01 1.6969685150670266e+00 2.7797934063371251e+01 1.1398513361743889e+01 0 -1 0
730 444 2 -8.2999999999999996e-01 9.0467242164162165e-01 2.8217618478921995e+01 1.1063306027441108e+01 0 -1 0
260 444 1 4.1499999999999998e-01 2.0266174261686820e+00 2.5325758558187374e+01 1.3966584741599851e+01 -5 0 0
731 444 1 4.1499999999999998e-01 6.6672679073244312e-01 2.7700904026540645e+01 1.0293487213238569e+01 0 -1 0
261 444 1 4.1499999999999998e-01 1.9945933747892512e+00 2.6603680801675246e+01 1.4777623769800135e+01 -5 0 0
2271 444 1 4.1499999999999998e-01 1.5186998116385326e+00 2.7459723008531025e+01 1.6831107553004511e+01 2 0 0
2269 444 2 -8.2999999999999996e-01 1.0254630381316550e+00 2.6836129636660413e+01 1.6298115396583100e+01 2 0 0
2270 444 1 4.1499999999999998e-01 5.8594986933308479e-01 2.6271761030620915e+01 1.6934156354287239e+01 2 0 0
3198 444 4 0.0000000000000000e+00 1.6560500000000000e+00 2.9732749999999999e+01 0.0000000000000000e+00 0 0 0
3199 444 4 -7.4069999999999997e-02 1.6941700000000000e+00 2.9760370000000002e+01 3.5718200000000002e+00 0 0 0
3201 444 4 0.0000000000000000e+00 1.6560500000000000e+00 3.1549700000000001e+01 1.8169999999999999e+00 0 0 0
3005 444 1 4.1499999999999998e-01 6.5485461422940128e-01 3.0005708126637817e+01 7.1578391160875130e+00 1 3 0
2419 444 2 -8.2999999999999996e-01 1.8256466730430954e+00 3.1456496522718371e+01 6.9384878907249394e+00 0 -5 0
3004 444 2 -8.2999999999999996e-01 1.6872061443657180e-01 2.9199384208097289e+01 7.3303149608507416e+00 1 3 0
11 444 3 1.0000000000000000e+00 2.0341480560669676e+00 3.0477232735632384e+01 1.0013583166902833e+01 2 -1 0
740 444 1 4.1499999999999998e-01 1.6776882058997733e+00 3.0340468349944267e+01 1.2880257387432914e+01 4 0 0
758 444 1 4.1499999999999998e-01 1.9734102181483038e-01 3.1201373266753855e+01 1.4755653076981872e+01 1 0 0
757 444 2 -8.2999999999999996e-01 5.1039649603309367e-01 3.1701051880714587e+01 1.4001630956608716e+01 1 0 0
1734 444 1 4.1499999999999998e-01 1.7802575406077095e+00 3.0881265630656401e+01 1.8286219445895536e+01 6 2 0
2966 444 1 4.1499999999999998e-01 1.5093721482424449e-01 2.9327756778805963e+01 1.9621488057809820e+01 0 2 0
2965 444 2 -8.2999999999999996e-01 8.5047286362750363e-01 2.9862494742306424e+01 1.9996903820494470e+01 0 2 0
3050 444 4 0.0000000000000000e+00 3.4729999999999999e+00 6.6205000000000003e-01 1.8169999999999999e+00 0 0 0
3074 444 4 -7.4069999999999997e-02 3.4709800000000000e+00 2.4612500000000002e+00 3.5992199999999999e+00 0 0 0
3075 444 4 0.0000000000000000e+00 3.4729999999999999e+00 2.4790000000000001e+00 0.0000000000000000e+00 0 0 0
2443 444 2 -8.2999999999999996e-01 3.8375731644599083e+00 4.8691046122046489e-01 6.7115766459283739e+00 4 1 0
2445 444 1 4.1499999999999998e-01 3.4700792567675056e+00 7.0580770589621811e-01 5.8552682039482775e+00 4 1 0
1664 444 1 4.1499999999999998e-01 3.9654820196533569e+00 3.8234614707152916e+00 6.0454513473630396e+00 1 -1 0
337 444 2 -8.2999999999999996e-01 2.2177665233602575e+00 1.1516998477031966e+00 1.3935140942080203e+01 4 2 0
792 444 1 4.1499999999999998e-01 3.0866440481151973e+00 9.1334890156266091e-01 1.1633686265230073e+01 -1 -2 0
2669 444 1 4.1499999999999998e-01 2.0526128128654526e+00 2.1568348231318151e+00 1.5467334712482410e+01 2 -1 0
339 444 1 4.1499999999999998e-01 2.8439903402802429e+00 4.7405481185633558e-01 1.4189844401471552e+01 4 2 0
1027 444 2 -8.2999999999999996e-01 2.5220951825575049e+00 3.8530221610483033e+00 9.1687071765029184e+00 -3 2 0
1061 444 1 4.1499999999999998e-01 3.5138365768627779e+00 2.3352247768016405e+00 1.3143097210464175e+01 -2 4 0
1060 444 2 -8.2999999999999996e-01 4.0434966682521871e+00 2.6573955873670005e+00 1.2413783863567385e+01 -2 4 0
790 444 2 -8.2999999999999996e-01 2.3842174257001547e+00 4.6726290552832506e-01 1.1160573067283789e+01 -1 -2 0
1028 444 1 4.1499999999999998e-01 2.9836371275024431e+00 3.7406632990370237e+00 8.3376915642381775e+00 -3 2 0
1747 444 2 -8.2999999999999996e-01 2.8511444341351608e+00 1.4596848570618834e+00 1.8170884086614436e+01 -2 -5 0
1749 444 1 4.1499999999999998e-01 2.8569094310730097e+00 1.8931489068319118e+00 1.7317474080576293e+01 -2 -5 0
1748 444 1 4.1499999999999998e-01 2.5878573272026539e+00 2.1442181986185971e+00 1.8785966641238328e+01 -2 -5 0
3064 444 4 0.0000000000000000e+00 3.4729999999999999e+00 6.1128000000000000e+00 0.0000000000000000e+00 0 0 0
3065 444 4 -7.4069999999999997e-02 3.4727800000000002e+00 6.1126199999999997e+00 3.5850399999999998e+00 0 0 0
3068 444 4 0.0000000000000000e+00 3.4729999999999999e+00 4.2959500000000004e+00 1.8169999999999999e+00 0 0 0
3088 444 4 0.0000000000000000e+00 3.4729999999999999e+00 7.9297500000000003e+00 1.8169999999999999e+00 0 0 0
919 444 2 -8.2999999999999996e-01 3.1195850537691245e+00 6.4321272292089926e+00 6.8275131168788574e+00 7 -1 0
920 444 1 4.1499999999999998e-01 3.3809903662059551e+00 7.2175801054436137e+00 6.3469272512910919e+00 7 -1 0
1665 444 1 4.1499999999999998e-01 3.8366773286556488e+00 5.0928153436017487e+00 6.8603410531995781e+00 1 -1 0
921 444 1 4.1499999999999998e-01 2.1630602683521212e+00 6.4361481972861085e+00 6.7917928205722919e+00 7 -1 0
429 444 1 4.1499999999999998e-01 2.2336162751943878e+00 5.8034259367722560e+00 1.5320097040516938e+01 1 0 0
1674 444 1 4.1499999999999998e-01 3.2082519790990869e+00 6.9242687172868980e+00 1.3510555890709140e+01 -3 3 0
1672 444 2 -8.2999999999999996e-01 3.6221306782629821e+00 7.7842681214095570e+00 1.3583610862648209e+01 -3 3 0
2852 444 1 4.1499999999999998e-01 3.7677830770298981e+00 6.1778598938275131e+00 9.9120309550517813e+00 0 1 0
2853 444 1 4.1499999999999998e-01 3.1307340592970991e+00 6.5208923820333258e+00 8.5822216264628555e+00 0 1 0
2851 444 2 -8.2999999999999996e-01 2.9926705285254225e+00 6.5868486017249106e+00 9.5271135113286487e+00 0 1 0
1999 444 2 -8.2999999999999996e-01 3.0543090333222782e+00 5.1789061230896447e+00 1.3433539907763301e+01 1 -2 0
2001 444 1 4.1499999999999998e-01 3.6110900681016771e+00 4.7007955211804857e+00 1.2819018180338087e+01 1 -2 0
2000 444 1 4.1499999999999998e-01 2.2666184688101181e+00 5.3875854134159518e+00 1.2931316481298701e+01 1 -2 0
1029 444 1 4.1499999999999998e-01 3.2064793444892201e+00 4.0954874130933261e+00 9.7924549164911632e+00 -3 2 0
880 444 2 -8.2999999999999996e-01 2.5197804323662960e+00 7.4794237415704181e+00 1.8025549050781592e+01 -1 1 0
881 444 1 4.1499999999999998e-01 2.4621258564686013e+00 6.6017609971164166e+00 1.7647903806764347e+01 -1 1 0
882 444 1 4.1499999999999998e-01 2.9675575307105939e+00 7.9990210829089596e+00 1.7357906806787277e+01 -1 1 0
3084 444 4 0.0000000000000000e+00 3.4729999999999999e+00 9.7467000000000006e+00 0.0000000000000000e+00 0 0 0
3085 444 4 -7.4069999999999997e-02 3.4753200000000000e+00 9.7654300000000003e+00 3.5991700000000000e+00 0 0 0
3106 444 4 0.0000000000000000e+00 3.4729999999999999e+00 1.1563549999999999e+01 1.8169999999999999e+00 0 0 0
2216 444 1 4.1499999999999998e-01 2.4281200091007267e+00 9.7365978027936375e+00 6.2013970289663121e+00 6 0 0
2215 444 2 -8.2999999999999996e-01 2.5012031810705264e+00 1.0332437767611150e+01 6.9469610069856094e+00 6 0 0
2217 444 1 4.1499999999999998e-01 3.2496277117741323e+00 1.0890524363183907e+01 6.7356949196472931e+00 6 0 0
2813 444 1 4.1499999999999998e-01 3.3373649096567939e+00 9.8647843414186358e+00 1.5994068602408460e+01 -3 3 0
1771 444 2 -8.2999999999999996e-01 2.5404963856028671e+00 1.0422099425804038e+01 9.5925152130548170e+00 -2 1 0
2314 444 2 -8.2999999999999996e-01 2.8976102943631026e+00 1.1444208800399549e+01 1.5338837771647057e+01 0 -3 0
1773 444 1 4.1499999999999998e-01 2.4478347743328248e+00 1.0068799032175594e+01 8.7077415889696539e+00 -2 1 0
2814 444 1 4.1499999999999998e-01 3.7149883224158886e+00 8.6588008895628850e+00 1.5160461958714755e+01 -3 3 0
1772 444 1 4.1499999999999998e-01 3.4368773967631787e+00 1.0756298694098072e+01 9.6248204662514159e+00 -2 1 0
2316 444 1 4.1499999999999998e-01 2.1578905252353837e+00 1.1061806720925325e+01 1.4866804765743263e+01 0 -3 0
2315 444 1 4.1499999999999998e-01 2.5196868704018796e+00 1.2178406472081166e+01 1.5822944696896162e+01 0 -3 0
1673 444 1 4.1499999999999998e-01 3.3237681549550837e+00 8.2607763700612189e+00 1.2808916411166685e+01 -3 3 0
489 444 1 4.1499999999999998e-01 2.4561022717400331e+00 8.4692428832360047e+00 1.9374505503857460e+01 -2 2 0
2812 444 2 -8.2999999999999996e-01 3.6111229590864600e+00 8.9504086931456381e+00 1.6066226668957803e+01 -3 3 0
32 444 1 4.1499999999999998e-01 3.6693085713927980e+00 1.0351502846479287e+01 1.9429566120486683e+01 2 -3 0
2267 444 1 4.1499999999999998e-01 2.4605336574374133e+00 1.2226509160938113e+01 1.9383987020067295e+01 -3 -3 0
3124 444 4 0.0000000000000000e+00 3.4729999999999999e+00 1.5197450000000000e+01 1.8169999999999999e+00 0 0 0
3130 444 4 -7.4069999999999997e-02 3.4709800000000000e+00 1.3362750000000000e+01 3.5992199999999999e+00 0 0 0
3131 444 4 0.0000000000000000e+00 3.4729999999999999e+00 1.3380500000000000e+01 0.0000000000000000e+00 0 0 0
2946 444 1 4.1499999999999998e-01 2.3926966081348597e+00 1.3378192736027295e+01 6.1438130548906980e+00 -4 1 0
930 444 1 4.1499999999999998e-01 3.5508018876182885e+00 1.5449285548430279e+01 7.1651913102743725e+00 4 0 0
2281 444 2 -8.2999999999999996e-01 3.7230421299377383e+00 1.6040200980307254e+01 1.4599319411707780e+01 -2 -3 0
2051 444 2 -8.2999999999999996e-01 2.6858279611766060e+00 1.4207631890262432e+01 1.2901330039352869e+01 -7 2 0
300 444 1 4.1499999999999998e-01 3.4571191026424701e+00 1.4470199366818857e+01 9.3545349041865826e+00 -2 -2 0
299 444 1 4.1499999999999998e-01 2.6014937958800397e+00 1.3504657376528520e+01 1.0146702305395431e+01 -2 -2 0
2053 444 1 4.1499999999999998e-01 2.7241347768622850e+00 1.4063170250083981e+01 1.1955869355352316e+01 -7 2 0
2283 444 1 4.1499999999999998e-01 3.3270617848957196e+00 1.5357415003997485e+01 1.4057807894087077e+01 -2 -3 0
298 444 2 -8.2999999999999996e-01 3.3552682857951228e+00 1.4089170765012303e+01 1.0226701999931239e+01 -2 -2 0
1381 444 2 -8.2999999999999996e-01 3.8396785168351166e+00 1.5696915943151472e+01 1.9768161806830665e+01 0 -2 0
2856 444 1 4.1499999999999998e-01 3.7949981979867142e+00 1.4972501644962323e+01 1.7540637765198813e+01 -2 2 0
3120 444 4 0.0000000000000000e+00 3.4729999999999999e+00 1.7014299999999999e+01 0.0000000000000000e+00 0 0 0
3121 444 4 -7.4069999999999997e-02 3.4727800000000002e+00 1.7014119999999998e+01 3.5850399999999998e+00 0 0 0
3144 444 4 0.0000000000000000e+00 3.4729999999999999e+00 1.8831250000000001e+01 1.8169999999999999e+00 0 0 0
324 444 1 4.1499999999999998e-01 2.3917203581068383e+00 1.6973789231383950e+01 6.2629365537559467e+00 3 -2 0
291 444 1 4.1499999999999998e-01 2.4135518449710096e+00 1.9524804869971131e+01 7.0054192610790507e+00 -2 1 0
289 444 2 -8.2999999999999996e-01 3.3056211119679246e+00 1.9781671043427693e+01 7.2387945494331065e+00 -2 1 0
290 444 1 4.1499999999999998e-01 3.8576632535125936e+00 1.9089698967813014e+01 6.8745748308931089e+00 -2 1 0
109 444 2 -8.2999999999999996e-01 3.5909630722392611e+00 1.9720374810326767e+01 1.3704029838876618e+01 -2 -2 0
2525 444 1 4.1499999999999998e-01 3.1545764979828883e+00 1.8996678107371277e+01 1.0655733539136286e+01 4 -1 0
110 444 1 4.1499999999999998e-01 4.0656336084025693e+00 1.8926752963632900e+01 1.3456877066721825e+01 -2 -2 0
2524 444 2 -8.2999999999999996e-01 2.2620370951418014e+00 1.9071246092875619e+01 1.0318028272079077e+01 4 -1 0
2526 444 1 4.1499999999999998e-01 2.3122425135873090e+00 1.8722384077833837e+01 9.4280807669032871e+00 4 -1 0
111 444 1 4.1499999999999998e-01 3.9553116934104602e+00 1.9962614353837154e+01 1.4555383057058933e+01 -2 -2 0
2912 444 1 4.1499999999999998e-01 2.6358992479128305e+00 1.7069360300116529e+01 1.8964454979744495e+01 5 6 0
1815 444 1 4.1499999999999998e-01 2.8469479273503810e+00 1.9584180547939329e+01 1.6590055296094519e+01 -3 -1 0
2911 444 2 -8.2999999999999996e-01 2.3692172300294629e+00 1.7978405545511507e+01 1.8827526062996480e+01 5 6 0
1813 444 2 -8.2999999999999996e-01 3.6377645405672525e+00 1.9077889542966957e+01 1.6775827997765454e+01 -3 -1 0
2913 444 1 4.1499999999999998e-01 2.9774761106107182e+00 1.8310056200058082e+01 1.8167024926260652e+01 5 6 0
3140 444 4 0.0000000000000000e+00 3.4729999999999999e+00 2.0648199999999999e+01 0.0000000000000000e+00 0 0 0
3141 444 4 -7.4069999999999997e-02 3.4753200000000000e+00 2.0666930000000001e+01 3.5991700000000000e+00 0 0 0
3162 444 4 0.0000000000000000e+00 3.4729999999999999e+00 2.2465050000000002e+01 1.8169999999999999e+00 0 0 0
3186 444 4 -7.4069999999999997e-02 3.4709800000000000e+00 2.4264250000000001e+01 3.5992199999999999e+00 0 0 0
3187 444 4 0.0000000000000000e+00 3.4729999999999999e+00 2.4282000000000000e+01 0.0000000000000000e+00 0 0 0
2013 444 1 4.1499999999999998e-01 3.0428952435740682e+00 2.2015318294505800e+01 6.4325026053849683e+00 -3 2 0
2012 444 1 4.1499999999999998e-01 2.2149972671791742e+00 2.3277676601078738e+01 6.3187851041003045e+00 -3 2 0
2011 444 2 -8.2999999999999996e-01 2.3363973052696427e+00 2.2498371317834348e+01 6.8611661875484469e+00 -3 2 0
2 444 3 1.0000000000000000e+00 2.9435949802793604e+00 2.1721649560763563e+01 9.8469129719484005e+00 -2 1 0
917 444 1 4.1499999999999998e-01 2.6983963744715944e+00 2.2343908995369066e+01 1.2932619420925944e+01 0 -1 0
916 444 2 -8.2999999999999996e-01 2.4414354517411132e+00 2.1634829853934768e+01 1.2343204654422896e+01 0 -1 0
918 444 1 4.1499999999999998e-01 2.9088885571115828e+00 2.0867373139535214e+01 1.2672946475361989e+01 0 -1 0
2089 444 2 -8.2999999999999996e-01 2.2024574845209708e+00 2.4338539427329856e+01 9.6818143777103600e+00 -3 -3 0
2279 444 1 4.1499999999999998e-01 2.7625498331445675e+00 2.2915782898999094e+01 1.5187469693064399e+01 4 -3 0
2278 444 2 -8.2999999999999996e-01 2.8204379584798969e+00 2.3219981850893877e+01 1.4281741081789237e+01 4 -3 0
2280 444 1 4.1499999999999998e-01 3.5580829010987838e+00 2.3829989760554479e+01 1.4280139435980949e+01 4 -3 0
63 444 1 4.1499999999999998e-01 3.2814328134026480e+00 2.1815658761830285e+01 1.9773552747418801e+01 4 1 0
61 444 2 -8.2999999999999996e-01 3.6223639842637270e+00 2.2617480530643896e+01 1.9377220024178005e+01 4 1 0
62 444 1 4.1499999999999998e-01 3.1935457261375713e+00 2.2663927943579118e+01 1.8522708849237514e+01 4 1 0
1198 444 2 -8.2999999999999996e-01 2.2562739102241181e+00 2.2753274812234110e+01 1.7046539596546054e+01 -2 -2 0
1200 444 1 4.1499999999999998e-01 2.0613691376523700e+00 2.1835535217004413e+01 1.6856808093420099e+01 -2 -2 0
3176 444 4 0.0000000000000000e+00 3.4729999999999999e+00 2.7915800000000001e+01 0.0000000000000000e+00 0 0 0
3177 444 4 -7.4069999999999997e-02 3.4727800000000002e+00 2.7915620000000001e+01 3.5850399999999998e+00 0 0 0
3180 444 4 0.0000000000000000e+00 3.4729999999999999e+00 2.6098949999999999e+01 1.8169999999999999e+00 0 0 0
1534 444 2 -8.2999999999999996e-01 3.5546694574670501e+00 2.7531653496486374e+01 6.3534956732297472e+00 -1 -3 0
1482 444 1 4.1499999999999998e-01 2.7982790926262342e+00 2.6157159087206399e+01 6.8763210124623502e+00 -6 4 0
1480 444 2 -8.2999999999999996e-01 2.2698243781573231e+00 2.5519476071413095e+01 7.3562458667418040e+00 -6 4 0
1536 444 1 4.1499999999999998e-01 3.7321679015898543e+00 2.8440407625762532e+01 6.1108189318807771e+00 -1 -3 0
2927 444 1 4.1499999999999998e-01 3.6740496026747578e+00 2.4556540852325838e+01 7.2119472794602766e+00 2 -4 0
118 444 2 -8.2999999999999996e-01 3.3655369952101490e+00 2.6265387517981221e+01 1.1097706781769055e+01 3 4 0
461 444 1 4.1499999999999998e-01 3.2946444306574856e+00 2.8055123242207980e+01 8.1233534715000566e+00 2 -1 0
460 444 2 -8.2999999999999996e-01 3.1569682740504383e+00 2.8253790582097398e+01 9.0495332473951500e+00 2 -1 0
462 444 1 4.1499999999999998e-01 3.2225553612731543e+00 2.7406047998063475e+01 9.4891499526524452e+00 2 -1 0
2091 444 1 4.1499999999999998e-01 2.4408230775824049e+00 2.5162382517309624e+01 1.0106898180805288e+01 -3 -3 0
120 444 1 4.1499999999999998e-01 3.1131261813994877e+00 2.6295807021729463e+01 1.2020526252853065e+01 3 4 0
259 444 2 -8.2999999999999996e-01 2.5193450092378598e+00 2.6129412586476565e+01 1.4132691836637408e+01 -5 0 0
2090 444 1 4.1499999999999998e-01 2.1283949977298224e+00 2.4560092733445828e+01 8.7535575466617672e+00 -3 -3 0
1848 444 1 4.1499999999999998e-01 4.0473977639006202e+00 2.5570239440543023e+01 1.4129011084877385e+01 5 5 0
1050 444 1 4.1499999999999998e-01 3.9944500661423108e+00 2.7450291466063312e+01 1.8931549367937595e+01 1 0 0
2395 444 2 -8.2999999999999996e-01 2.9271740464491400e+00 2.8397687697473568e+01 1.7407297853902378e+01 1 -5 0
2397 444 1 4.1499999999999998e-01 3.5711619797270280e+00 2.8243328661613422e+01 1.6716150476033828e+01 1 -5 0
3196 444 4 0.0000000000000000e+00 3.4729999999999999e+00 3.1549700000000001e+01 0.0000000000000000e+00 0 0 0
3197 444 4 -7.4069999999999997e-02 3.4753200000000000e+00 3.1568429999999999e+01 3.5991700000000000e+00 0 0 0
3200 444 4 0.0000000000000000e+00 3.4729999999999999e+00 2.9732749999999999e+01 1.8169999999999999e+00 0 0 0
2421 444 1 4.1499999999999998e-01 2.3761345059286727e+00 3.0751507969885026e+01 6.5976269914446295e+00 0 -5 0
2420 444 1 4.1499999999999998e-01 2.3893724909081264e+00 3.2229936853754218e+01 6.9231541968897163e+00 0 -5 0
2074 444 2 -8.2999999999999996e-01 3.9233590443641888e+00 3.1760548733265914e+01 1.5354035404038148e+01 0 -1 0
739 444 2 -8.2999999999999996e-01 2.5547604904261667e+00 3.0012266175080001e+01 1.2682116439858797e+01 4 0 0
741 444 1 4.1499999999999998e-01 3.0904100626378161e+00 3.0296714418751815e+01 1.3422657350421533e+01 4 0 0
2396 444 1 4.1499999999999998e-01 3.0385571130118096e+00 2.9320108832154201e+01 1.7637438485017430e+01 1 -5 0
2076 444 1 4.1499999999999998e-01 3.4614501652232557e+00 3.1634434292244599e+01 1.6182870693710885e+01 0 -1 0
1732 444 2 -8.2999999999999996e-01 2.4783267394781001e+00 3.1216247820540083e+01 1.7723441570316631e+01 6 2 0
1733 444 1 4.1499999999999998e-01 2.3793653548041416e+00 3.2167661339526482e+01 1.7758819011518696e+01 6 2 0
3054 444 4 0.0000000000000000e+00 5.2898399999999999e+00 6.6205000000000003e-01 0.0000000000000000e+00 0 0 0
3055 444 4 -7.4069999999999997e-02 5.2703899999999999e+00 6.6017000000000003e-01 3.5993800000000000e+00 0 0 0
3057 444 4 0.0000000000000000e+00 5.2898399999999999e+00 2.4790000000000001e+00 1.8169999999999999e+00 0 0 0
1680 444 1 4.1499999999999998e-01 5.1416702517954516e+00 3.0906279380794421e+00 7.8812128267324040e+00 0 -1 0
2444 444 1 4.1499999999999998e-01 4.7532588072105524e+00 2.7336275748620043e-01 6.5322738725110474e+00 4 1 0
1453 444 2 -8.2999999999999996e-01 5.4358034800160011e+00 3.4748937938730423e-01 1.1446593258314884e+01 1 3 0
1678 444 2 -8.2999999999999996e-01 5.1482158773607578e+00 2.3515605230228172e+00 8.4894639414966502e+00 0 -1 0
1062 444 1 4.1499999999999998e-01 4.8337905580575669e+00 3.0056245754581221e+00 1.2826584011202820e+01 -2 4 0
1679 444 1 4.1499999999999998e-01 4.4669308731791633e+00 1.7646790169780533e+00 8.1613585477882413e+00 0 -1 0
1455 444 1 4.1499999999999998e-01 5.1556130375820626e+00 1.2401259428800468e+00 1.1648894780465767e+01 1 3 0