LAMMPS data file via write_data, version 11 Aug 2017, timestep = 1000000

3552 atoms
11 atom types
2024 bonds
5 bond types
1018 angles
5 angle types
12 dihedrals
4 dihedral types
9 impropers
1 improper types

0.0000000000000000e+00 3.2704500000000003e+01 xlo xhi
0.0000000000000000e+00 3.2704500000000003e+01 ylo yhi
0.0000000000000000e+00 8.0000000000000000e+01 zlo zhi

Masses

1 1.0079
2 15.9994
3 39.0983
4 63.546
5 12.011
6 1.0079
7 12.011
8 15.9994
9 15.9994
10 15.9994
11 1.0079

Bond Coeffs # harmonic

1 450 0.9572
2 570 1.229
3 450 1.364
4 570 1.229
5 553 0.945

Angle Coeffs # harmonic

1 100 123.32
2 85 124
3 55 104.52
4 35 113
5 100 123.32

Dihedral Coeffs # charmm

1 0.922 1 180 0
2 3.741 2 0 0
3 0.922 1 0 0
4 3.741 2 180 0

Improper Coeffs # umbrella

1 21 0

Atoms # full

3049 444 4 -7.4069999999999997e-02 1.6634700000000000e+00 6.6822999999999999e-01 3.5783200000000002e+00 0 0 0
3051 444 4 0.0000000000000000e+00 1.6560500000000000e+00 2.4790000000000001e+00 1.8169999999999999e+00 0 0 0
3060 444 4 0.0000000000000000e+00 1.6560500000000000e+00 6.6205000000000003e-01 0.0000000000000000e+00 0 0 0
300 444 1 4.1499999999999998e-01 9.7239052623253686e-01 1.6493569444335794e+00 5.9746056046734068e+00 -4 -2 0
298 444 2 -8.2999999999999996e-01 1.2842085125167138e+00 2.2173742244213948e+00 6.6791322460512568e+00 -4 -2 0
299 444 1 4.1499999999999998e-01 1.1384017053391704e+00 3.1056242911580814e+00 6.3535792381862510e+00 -4 -2 0
1290 444 1 4.1499999999999998e-01 1.9922913239747930e-01 2.4476451066603118e+00 1.2164169478964700e+01 -4 4 0
1289 444 1 4.1499999999999998e-01 6.9896389473902065e-01 1.2500505864562379e+00 1.1384472596548621e+01 -4 4 0
70 444 2 -8.2999999999999996e-01 6.7561807102307081e-01 3.4653944114749189e+00 9.2797733173187371e+00 4 -3 0
995 444 1 4.1499999999999998e-01 1.5291268343014217e+00 3.2560856457661469e+00 1.3963748214847209e+01 6 1 0
994 444 2 -8.2999999999999996e-01 1.9310179283180380e+00 3.0399861257610188e+00 1.4805185563582540e+01 6 1 0
1288 444 2 -8.2999999999999996e-01 8.8021022764711299e-01 1.7749664476325313e+00 1.2164116770925315e+01 -4 4 0
71 444 1 4.1499999999999998e-01 7.3657467655490827e-01 2.5285657531489010e+00 9.0930433259899370e+00 4 -3 0
996 444 1 4.1499999999999998e-01 1.1926672404311238e+00 2.9492990493078746e+00 1.5407552753642648e+01 6 1 0
406 444 2 -8.2999999999999996e-01 9.2409748214298121e-02 8.3871683156217292e-01 9.0869358733020640e+00 2 1 0
72 444 1 4.1499999999999998e-01 7.2633081058716797e-01 3.8850760396705888e+00 8.4209794114632430e+00 4 -3 0
542 444 1 4.1499999999999998e-01 6.6711314239431452e-01 1.6908870988934017e+00 1.7926194903132629e+01 -6 6 0
1162 444 2 -8.2999999999999996e-01 1.7147037555419102e+00 2.2757041132502094e+00 1.9407312818127252e+01 2 1 0
541 444 2 -8.2999999999999996e-01 2.0271112131902186e-01 1.1237615275030797e+00 1.7310620490574770e+01 -6 6 0
1163 444 1 4.1499999999999998e-01 1.9283235151054539e+00 3.2046124677505068e+00 1.9319405664904497e+01 2 1 0
543 444 1 4.1499999999999998e-01 3.8735298310697885e-02 1.6797665191854478e+00 1.6548910226070046e+01 -6 6 0
3066 444 4 0.0000000000000000e+00 1.6560500000000000e+00 4.2959500000000004e+00 0.0000000000000000e+00 0 0 0
3067 444 4 -7.4069999999999997e-02 1.6608700000000001e+00 4.2992499999999998e+00 3.5667900000000001e+00 0 0 0
3069 444 4 0.0000000000000000e+00 1.6560500000000000e+00 6.1128000000000000e+00 1.8169999999999999e+00 0 0 0
3086 444 4 0.0000000000000000e+00 1.6560500000000000e+00 7.9297500000000003e+00 0.0000000000000000e+00 0 0 0
3087 444 4 -7.4069999999999997e-02 1.6724000000000001e+00 7.9309300000000000e+00 3.5685699999999998e+00 0 0 0
384 444 1 4.1499999999999998e-01 1.1554569986700094e+00 5.4126360981659927e+00 7.0200224628143024e+00 -4 -1 0
382 444 2 -8.2999999999999996e-01 5.4779298929825271e-01 4.6803138587278807e+00 6.9166761907276912e+00 -4 -1 0
389 444 1 4.1499999999999998e-01 1.8249869377508423e+00 7.1462817107726968e+00 6.0408334731885827e+00 0 0 0
2605 444 2 -8.2999999999999996e-01 1.6956179658278543e+00 7.9660039351685183e+00 1.5412791590809793e+01 -4 -1 0
2607 444 1 4.1499999999999998e-01 1.6926412756363047e+00 7.5046914369698117e+00 1.4574093924297678e+01 -4 -1 0
2072 444 1 4.1499999999999998e-01 1.6104378011810816e+00 5.9797148511711127e+00 1.2662035439540507e+01 3 4 0
2073 444 1 4.1499999999999998e-01 4.2022470449927418e-01 6.8163201402764990e+00 1.3080818285514072e+01 3 4 0
2071 444 2 -8.2999999999999996e-01 1.3703399051076970e+00 6.7503517414243737e+00 1.3176529018316305e+01 3 4 0
647 444 1 4.1499999999999998e-01 1.7085268128901721e+00 4.1134084922075616e+00 1.1558483013493216e+01 2 4 0
2606 444 1 4.1499999999999998e-01 1.7054578145212484e+00 7.2697749596012189e+00 1.6069602241007026e+01 -4 -1 0
2090 444 1 4.1499999999999998e-01 1.9925583792610926e-01 5.4007366867461339e+00 1.7078896338551019e+01 -1 -2 0
2113 444 2 -8.2999999999999996e-01 1.8433739916352738e+00 5.3795272249008645e+00 1.9679192695807142e+01 -2 0 0
2089 444 2 -8.2999999999999996e-01 9.5144014462715143e-01 5.9799629962958551e+00 1.7201156403779411e+01 -1 -2 0
2091 444 1 4.1499999999999998e-01 1.1717476078730253e+00 5.8946713478318671e+00 1.8128745527107245e+01 -1 -2 0
3089 444 4 0.0000000000000000e+00 1.6560500000000000e+00 9.7467000000000006e+00 1.8169999999999999e+00 0 0 0
3105 444 4 -7.4069999999999997e-02 1.6634700000000000e+00 1.1569730000000000e+01 3.5783200000000002e+00 0 0 0
3116 444 4 0.0000000000000000e+00 1.6560500000000000e+00 1.1563549999999999e+01 0.0000000000000000e+00 0 0 0
2014 444 2 -8.2999999999999996e-01 1.4820059210931977e+00 1.0247962143986312e+01 6.9224938674506209e+00 0 -1 0
2015 444 1 4.1499999999999998e-01 8.8082391368325152e-01 9.5031350089035787e+00 6.9158197343357815e+00 0 -1 0
2016 444 1 4.1499999999999998e-01 1.4892912778456799e+00 1.0558609267889921e+01 6.0171336421961623e+00 0 -1 0
1268 444 1 4.1499999999999998e-01 2.1346209275179451e-01 1.1559973212089883e+01 1.1145881141546390e+01 -1 5 0
2950 444 2 -8.2999999999999996e-01 1.0257634944575706e+00 1.1026957577877917e+01 1.3974301114367250e+01 -1 0 0
2952 444 1 4.1499999999999998e-01 1.8213745941079316e+00 1.0667229231521272e+01 1.4366514083923310e+01 -1 0 0
2951 444 1 4.1499999999999998e-01 7.5852651251318659e-01 1.1725635365390758e+01 1.4571516906967645e+01 -1 0 0
799 444 2 -8.2999999999999996e-01 1.6802602646152729e+00 8.5289256733694305e+00 1.0656396980714877e+01 5 -3 0
1269 444 1 4.1499999999999998e-01 8.0374042464535711e-01 1.1720287805667686e+01 1.2530715295453358e+01 -1 5 0
801 444 1 4.1499999999999998e-01 7.3774226943084498e-01 8.3623569929166806e+00 1.0644274609593577e+01 5 -3 0
1267 444 2 -8.2999999999999996e-01 8.0277346801108751e-01 1.2113676075215675e+01 1.1658089120559589e+01 -1 5 0
713 444 1 4.1499999999999998e-01 8.6295000557730051e-01 1.1727895219932833e+01 1.6935105286998024e+01 3 1 0
712 444 2 -8.2999999999999996e-01 1.4632751327565556e+00 1.1087649270840457e+01 1.7317109038767498e+01 3 1 0
430 444 2 -8.2999999999999996e-01 1.3195140278420803e+00 1.0799477709001284e+01 1.9997064925318131e+01 1 -3 0
432 444 1 4.1499999999999998e-01 1.5013455017744446e+00 1.0907757815726896e+01 1.9063553378239774e+01 1 -3 0
3107 444 4 0.0000000000000000e+00 1.6560500000000000e+00 1.3380500000000000e+01 1.8169999999999999e+00 0 0 0
3122 444 4 0.0000000000000000e+00 1.6560500000000000e+00 1.5197450000000000e+01 0.0000000000000000e+00 0 0 0
3123 444 4 -7.4069999999999997e-02 1.6608700000000001e+00 1.5200749999999999e+01 3.5667900000000001e+00 0 0 0
351 444 1 4.1499999999999998e-01 1.1534069909195126e+00 1.2551869098302364e+01 7.4393791342618982e+00 0 -1 0
349 444 2 -8.2999999999999996e-01 1.7109171200910556e+00 1.3300027703186259e+01 7.2256666656881103e+00 0 -1 0
350 444 1 4.1499999999999998e-01 1.2032074378964277e+00 1.3803654816707503e+01 6.5894100242226159e+00 0 -1 0
2723 444 1 4.1499999999999998e-01 8.1667814712072928e-01 1.4028398737398335e+01 1.5806306691028484e+01 3 -2 0
1944 444 1 4.1499999999999998e-01 2.1796509201763667e-01 1.6016709730005939e+01 8.6403215848687438e+00 0 3 0
2722 444 2 -8.2999999999999996e-01 3.4958363536909509e-01 1.3205537538313253e+01 1.5661550321659375e+01 3 -2 0
286 444 2 -8.2999999999999996e-01 1.8829313475434599e+00 1.5474078368218024e+01 1.5874613740229641e+01 1 0 0
3025 444 3 1.0000000000000000e+00 1.9477416496608353e+00 1.6214160090097867e+01 1.1678598542853907e+01 4 2 0
2339 444 1 4.1499999999999998e-01 5.3974991990187668e-02 1.3606647779729242e+01 1.2587821893670087e+01 -2 -2 0
2338 444 2 -8.2999999999999996e-01 1.7713410461975693e-03 1.4561851539157237e+01 1.2554772023798943e+01 -2 -2 0
287 444 1 4.1499999999999998e-01 1.3689670788983228e+00 1.5478399438298835e+01 1.6682112133968772e+01 1 0 0
2488 444 2 -8.2999999999999996e-01 6.5561817674210420e-03 1.6200898017727742e+01 1.8054642745654853e+01 2 -4 0
3125 444 4 0.0000000000000000e+00 1.6560500000000000e+00 1.7014299999999999e+01 1.8169999999999999e+00 0 0 0
3142 444 4 0.0000000000000000e+00 1.6560500000000000e+00 1.8831250000000001e+01 0.0000000000000000e+00 0 0 0
3143 444 4 -7.4069999999999997e-02 1.6724000000000001e+00 1.8832429999999999e+01 3.5685699999999998e+00 0 0 0
2468 444 1 4.1499999999999998e-01 1.6064010744545008e+00 1.9625361013076244e+01 7.8266123266450451e+00 1 0 0
1046 444 1 4.1499999999999998e-01 1.8823492763118421e+00 1.7248152838120735e+01 7.9703765209063171e+00 -3 6 0
2675 444 1 4.1499999999999998e-01 1.0642821596043979e+00 1.8761971208079263e+01 1.0209494674849671e+01 6 6 0
2296 444 2 -8.2999999999999996e-01 1.7703994628627402e+00 1.9004633170253811e+01 1.4113218742377931e+01 2 1 0
1942 444 2 -8.2999999999999996e-01 4.2108075548470703e-01 1.6619460170543956e+01 9.3556309652783689e+00 0 3 0
2676 444 1 4.1499999999999998e-01 1.7536771210608890e+00 1.9617938567850199e+01 1.1250623689203264e+01 6 6 0
2674 444 2 -8.2999999999999996e-01 1.3535904602967053e+00 1.8757940069548656e+01 1.1121918002348627e+01 6 6 0
3145 444 4 0.0000000000000000e+00 1.6560500000000000e+00 2.0648199999999999e+01 1.8169999999999999e+00 0 0 0
3161 444 4 -7.4069999999999997e-02 1.6634700000000000e+00 2.2471229999999998e+01 3.5783200000000002e+00 0 0 0
3163 444 4 0.0000000000000000e+00 1.6560500000000000e+00 2.4282000000000000e+01 1.8169999999999999e+00 0 0 0
3172 444 4 0.0000000000000000e+00 1.6560500000000000e+00 2.2465050000000002e+01 0.0000000000000000e+00 0 0 0
2469 444 1 4.1499999999999998e-01 1.7178196158280241e+00 2.1063053747126123e+01 7.3656131315498916e+00 1 0 0
2936 444 2 -8.2999999999999996e-01 6.7388561580929512e-02 2.2622198514990856e+01 6.6811939994926997e+00 1 1 0
993 444 1 4.1499999999999998e-01 8.2513185777622311e-01 2.4237498746784279e+01 7.4304588327426764e+00 2 1 0
2467 444 2 -8.2999999999999996e-01 1.1755186271671254e+00 2.0477435783768453e+01 7.8940011082122945e+00 1 0 0
731 444 1 4.1499999999999998e-01 1.6793162166825302e+00 2.1927409924490718e+01 1.3474870117113236e+01 3 -1 0
2419 444 2 -8.2999999999999996e-01 1.3555478283572067e+00 2.4025865348682469e+01 1.0699429369715363e+01 0 -3 0
730 444 2 -8.2999999999999996e-01 9.4048780546465383e-01 2.1342058794894694e+01 1.3308351772644864e+01 3 -1 0
732 444 1 4.1499999999999998e-01 1.2238924540964098e+00 2.0494422482260934e+01 1.3651026987128082e+01 3 -1 0
1448 444 1 4.1499999999999998e-01 8.6131514231546191e-02 2.0857430585671306e+01 8.9601521458553393e+00 6 -2 0
2421 444 1 4.1499999999999998e-01 2.0333371321157823e+00 2.3410022657912073e+01 1.0420913256464017e+01 0 -3 0
2725 444 2 -8.2999999999999996e-01 1.4789041851904430e-01 2.2253643892682327e+01 1.7276114159600159e+01 1 -1 0
1314 444 1 4.1499999999999998e-01 9.6041932626118931e-01 2.1789182419842728e+01 1.9095975639963314e+01 3 1 0
2373 444 1 4.1499999999999998e-01 1.8569583909480654e+00 2.1955872909477051e+01 1.6781028555469611e+01 -2 -4 0
3178 444 4 0.0000000000000000e+00 1.6560500000000000e+00 2.6098949999999999e+01 0.0000000000000000e+00 0 0 0
3179 444 4 -7.4069999999999997e-02 1.6608700000000001e+00 2.6102250000000002e+01 3.5667900000000001e+00 0 0 0
3181 444 4 0.0000000000000000e+00 1.6560500000000000e+00 2.7915800000000001e+01 1.8169999999999999e+00 0 0 0
992 444 1 4.1499999999999998e-01 1.9696516054618727e+00 2.5226940518153111e+01 7.4849995495459325e+00 2 1 0
991 444 2 -8.2999999999999996e-01 1.0716209371494045e+00 2.5090893663578569e+01 7.7870987792073549e+00 2 1 0
2168 444 1 4.1499999999999998e-01 1.9892689527030234e+00 2.5701430298463475e+01 1.1765074551148933e+01 -1 1 0
1938 444 1 4.1499999999999998e-01 1.2069117709412729e+00 2.8562527614258741e+01 1.0697288260719413e+01 4 0 0
1993 444 2 -8.2999999999999996e-01 1.8443492147315721e+00 2.7814994935902618e+01 8.8793818567346001e+00 5 -1 0
2322 444 1 4.1499999999999998e-01 1.4772026467383943e+00 2.6253283531571164e+01 1.4919908726559871e+01 1 1 0
1937 444 1 4.1499999999999998e-01 1.7148039398200132e+00 2.8205932793079416e+01 1.2078150555063827e+01 4 0 0
1994 444 1 4.1499999999999998e-01 1.7969747761894928e+00 2.8365383507344813e+01 8.0976787512500046e+00 5 -1 0
1995 444 1 4.1499999999999998e-01 1.6713100321987486e+00 2.6929340654049444e+01 8.5601546526060517e+00 5 -1 0
2420 444 1 4.1499999999999998e-01 1.1507554997570519e+00 2.4529710950404187e+01 9.9117547438615166e+00 0 -3 0
838 444 1 4.1499999999999998e-01 4.6436338583053022e-01 2.6009426781155888e+01 1.9456541017191789e+01 5 -3 0
2976 444 1 4.1499999999999998e-01 1.9032617882750387e+00 2.8550816153598433e+01 1.8718654167733199e+01 1 1 0
3198 444 4 0.0000000000000000e+00 1.6560500000000000e+00 2.9732749999999999e+01 0.0000000000000000e+00 0 0 0
3199 444 4 -7.4069999999999997e-02 1.6724000000000001e+00 2.9733930000000001e+01 3.5685699999999998e+00 0 0 0
3201 444 4 0.0000000000000000e+00 1.6560500000000000e+00 3.1549700000000001e+01 1.8169999999999999e+00 0 0 0
2050 444 2 -8.2999999999999996e-01 1.8045737160472410e+00 3.1287458156479328e+01 7.4424786403591705e+00 -1 -4 0
2513 444 1 4.1499999999999998e-01 6.8006672955747438e-01 2.9772825015312812e+01 7.1628363594320863e+00 3 3 0
280 444 2 -8.2999999999999996e-01 9.2235872930265306e-01 3.1401941065952027e+01 1.1694434609755277e+01 2 -2 0
281 444 1 4.1499999999999998e-01 9.4878126993971879e-01 3.0505420113954049e+01 1.2028775405221207e+01 2 -2 0
2418 444 1 4.1499999999999998e-01 1.4704949184214708e+00 3.1370057490216443e+01 1.5103517220460384e+01 0 -3 0
282 444 1 4.1499999999999998e-01 3.2582948168826065e-01 3.1361819296010093e+01 1.0946922108734967e+01 2 -2 0
1936 444 2 -8.2999999999999996e-01 1.0604119694166902e+00 2.8738958652389808e+01 1.1626611873218989e+01 4 0 0
407 444 1 4.1499999999999998e-01 1.6463951508350866e-01 3.2630431691377161e+01 9.3659300934895686e+00 2 0 0
503 444 1 4.1499999999999998e-01 1.6433575466234205e+00 3.2203110488666830e+01 1.8442174419297970e+01 2 -2 0
504 444 1 4.1499999999999998e-01 1.5762136563644298e+00 3.0691025857390287e+01 1.8410758128131928e+01 2 -2 0
502 444 2 -8.2999999999999996e-01 1.9902072628580016e+00 3.1420933848004989e+01 1.8871274749776422e+01 2 -2 0
2398 444 2 -8.2999999999999996e-01 2.4237556165316099e-01 2.9153191491854336e+01 1.9565547217548520e+01 1 -1 0
3050 444 4 0.0000000000000000e+00 3.4729999999999999e+00 6.6205000000000003e-01 1.8169999999999999e+00 0 0 0
3074 444 4 -7.4069999999999997e-02 3.4698099999999998e+00 2.4737000000000000e+00 3.5775800000000002e+00 0 0 0
3075 444 4 0.0000000000000000e+00 3.4729999999999999e+00 2.4790000000000001e+00 0.0000000000000000e+00 0 0 0
2189 444 1 4.1499999999999998e-01 2.6510828718854649e+00 3.4065412674751006e+00 6.9103945956575581e+00 4 3 0
1517 444 1 4.1499999999999998e-01 2.9864821183985910e+00 3.8878140780519532e-01 1.4843270440631454e+01 -2 -1 0
1516 444 2 -8.2999999999999996e-01 3.6367087047502142e+00 1.0854239621952511e+00 1.4753123903995322e+01 -2 -1 0
1252 444 2 -8.2999999999999996e-01 3.4134941669847616e+00 7.0092942078250975e-01 8.4559275374607559e+00 0 5 0
2789 444 1 4.1499999999999998e-01 3.9182381683644913e+00 6.8090928074605084e-01 1.2978920296173607e+01 1 3 0
1518 444 1 4.1499999999999998e-01 3.1375177411191308e+00 1.8950277806995883e+00 1.4860743121521201e+01 -2 -1 0
1254 444 1 4.1499999999999998e-01 2.5497972368699053e+00 1.0602579339013098e+00 8.2530900567307981e+00 0 5 0
1253 444 1 4.1499999999999998e-01 4.0273384708272095e+00 1.2878886009113295e+00 8.0144451005027584e+00 0 5 0
2790 444 1 4.1499999999999998e-01 2.8531158836135515e+00 8.5133450509624797e-01 1.1916675106505812e+01 1 3 0
2788 444 2 -8.2999999999999996e-01 3.7709302594484959e+00 1.0459053326305785e+00 1.2106388876303491e+01 1 3 0
721 444 2 -8.2999999999999996e-01 3.9651623253999366e+00 4.0132365818617695e+00 1.9898994386707894e+01 1 -1 0
3064 444 4 0.0000000000000000e+00 3.4729999999999999e+00 6.1128000000000000e+00 0.0000000000000000e+00 0 0 0
3065 444 4 -7.4069999999999997e-02 3.4754100000000001e+00 6.1100300000000001e+00 3.5764300000000002e+00 0 0 0
3068 444 4 0.0000000000000000e+00 3.4729999999999999e+00 4.2959500000000004e+00 1.8169999999999999e+00 0 0 0
3088 444 4 0.0000000000000000e+00 3.4729999999999999e+00 7.9297500000000003e+00 1.8169999999999999e+00 0 0 0
2190 444 1 4.1499999999999998e-01 2.9643094575072588e+00 4.7785757513382938e+00 6.3524467826932707e+00 4 3 0
388 444 2 -8.2999999999999996e-01 2.1203730560292486e+00 6.6836661872138530e+00 6.8250309529589694e+00 0 0 0
390 444 1 4.1499999999999998e-01 2.6987060476399911e+00 7.3053814791205482e+00 7.2668828231262284e+00 0 0 0
2188 444 2 -8.2999999999999996e-01 3.2748010970454251e+00 4.1289733089458887e+00 6.9831953876555142e+00 4 3 0
2001 444 1 4.1499999999999998e-01 3.3515299643110312e+00 4.7356597484647001e+00 9.7901452578018482e+00 -2 -2 0
2427 444 1 4.1499999999999998e-01 3.3613709708619739e+00 5.6270160862427652e+00 1.4115680728257027e+01 9 2 0
646 444 2 -8.2999999999999996e-01 2.2477455827646842e+00 4.8122373039038644e+00 1.1928770938655335e+01 2 4 0
2426 444 1 4.1499999999999998e-01 3.0609746726826432e+00 4.6568324612546386e+00 1.5238356361571935e+01 9 2 0
2000 444 1 4.1499999999999998e-01 3.7063562902005978e+00 5.3929656024577106e+00 8.4733529871941347e+00 -2 -2 0
648 444 1 4.1499999999999998e-01 3.0985441413480683e+00 4.4021051950711385e+00 1.2084221653338922e+01 2 4 0
1999 444 2 -8.2999999999999996e-01 3.5816776968736903e+00 5.5805853362463020e+00 9.4036680982628358e+00 -2 -2 0
2425 444 2 -8.2999999999999996e-01 3.6071181190439514e+00 5.4105738631713418e+00 1.5015121234278388e+01 9 2 0
800 444 1 4.1499999999999998e-01 2.0642080974228940e+00 7.7122569358396538e+00 1.0975565033952334e+01 5 -3 0
2114 444 1 4.1499999999999998e-01 2.6159132109420944e+00 4.8481882187386738e+00 1.9871793816238384e+01 -2 0 0
3084 444 4 0.0000000000000000e+00 3.4729999999999999e+00 9.7467000000000006e+00 0.0000000000000000e+00 0 0 0
3085 444 4 -7.4069999999999997e-02 3.4700000000000002e+00 9.7633299999999998e+00 3.5802399999999999e+00 0 0 0
3106 444 4 0.0000000000000000e+00 3.4729999999999999e+00 1.1563549999999999e+01 1.8169999999999999e+00 0 0 0
2466 444 1 4.1499999999999998e-01 3.1484398061664338e+00 9.5695054456121227e+00 6.8806432710058303e+00 0 0 0
2464 444 2 -8.2999999999999996e-01 4.0173484251890796e+00 9.1803297111579223e+00 6.7817887041355176e+00 0 0 0
128 444 1 4.1499999999999998e-01 2.7450052300352366e+00 9.2579204237869721e+00 1.2005275421494938e+01 2 -5 0
1178 444 1 4.1499999999999998e-01 2.5236224945966210e+00 9.3577447021665225e+00 1.5373890499815852e+01 5 0 0
127 444 2 -8.2999999999999996e-01 3.5937515982865866e+00 9.6994590075999891e+00 1.1975189874276682e+01 2 -5 0
1179 444 1 4.1499999999999998e-01 3.9384840703807402e+00 9.6740386765208193e+00 1.5809803307741291e+01 5 0 0
1188 444 1 4.1499999999999998e-01 3.8147242632917058e+00 1.2248109946334264e+01 1.4901725997128251e+01 -4 0 0
2374 444 2 -8.2999999999999996e-01 2.6792037449114723e+00 1.0965432073845339e+01 9.2227753454236527e+00 1 3 0
2376 444 1 4.1499999999999998e-01 2.2189722003353176e+00 1.0280117160627521e+01 9.7072977085083920e+00 1 3 0
2375 444 1 4.1499999999999998e-01 2.5637819672657183e+00 1.0727698830628672e+01 8.3027793784601975e+00 1 3 0
1177 444 2 -8.2999999999999996e-01 3.1385288029213250e+00 1.0083559312948834e+01 1.5480263858847209e+01 5 0 0
129 444 1 4.1499999999999998e-01 4.0453842367516213e+00 9.3008830254387984e+00 1.1231283312521166e+01 2 -5 0
714 444 1 4.1499999999999998e-01 2.1642577960376332e+00 1.1000703760689371e+01 1.6671124527457764e+01 3 1 0
3124 444 4 0.0000000000000000e+00 3.4729999999999999e+00 1.5197450000000000e+01 1.8169999999999999e+00 0 0 0
3130 444 4 -7.4069999999999997e-02 3.4698099999999998e+00 1.3375200000000000e+01 3.5775800000000002e+00 0 0 0
3131 444 4 0.0000000000000000e+00 3.4729999999999999e+00 1.3380500000000000e+01 0.0000000000000000e+00 0 0 0
2345 444 1 4.1499999999999998e-01 3.7193293837133563e+00 1.2429233257182716e+01 7.5559879728685537e+00 1 3 0
3019 444 3 1.0000000000000000e+00 3.2476553962597579e+00 1.2373743424008968e+01 1.1361418147034001e+01 2 1 0
2116 444 2 -8.2999999999999996e-01 2.9884266441998166e+00 1.4627233741039163e+01 1.3600486606818821e+01 0 -4 0
2117 444 1 4.1499999999999998e-01 3.8484864445267508e+00 1.4507390037795489e+01 1.4003183458363257e+01 0 -4 0
1042 444 2 -8.2999999999999996e-01 2.9813990592853505e+00 1.4253314843871289e+01 9.3205116587657120e+00 3 -1 0
1043 444 1 4.1499999999999998e-01 2.4334237089618620e+00 1.3840602920537494e+01 8.6529612611613160e+00 3 -1 0
1044 444 1 4.1499999999999998e-01 3.8325607019478660e+00 1.4364759708171066e+01 8.8970312573362662e+00 3 -1 0
2118 444 1 4.1499999999999998e-01 2.4188050671473866e+00 1.4887973549907333e+01 1.4324211328597073e+01 0 -4 0
288 444 1 4.1499999999999998e-01 2.7153171433820553e+00 1.5879343615821547e+01 1.6117771782611349e+01 1 0 0
3120 444 4 0.0000000000000000e+00 3.4729999999999999e+00 1.7014299999999999e+01 0.0000000000000000e+00 0 0 0
3121 444 4 -7.4069999999999997e-02 3.4754100000000001e+00 1.7011530000000000e+01 3.5764300000000002e+00 0 0 0
3144 444 4 0.0000000000000000e+00 3.4729999999999999e+00 1.8831250000000001e+01 1.8169999999999999e+00 0 0 0
1045 444 2 -8.2999999999999996e-01 2.3619997806198358e+00 1.7967275486895105e+01 7.5592437426293815e+00 -3 6 0
1047 444 1 4.1499999999999998e-01 2.1701836486340214e+00 1.7880794427173310e+01 6.6254559641471324e+00 -3 6 0
1424 444 1 4.1499999999999998e-01 4.0004338716146561e+00 1.8903973342421850e+01 7.4091266736492836e+00 3 4 0
2767 444 2 -8.2999999999999996e-01 3.8637656043381550e+00 1.9411071764266303e+01 1.5762479372345650e+01 1 0 0
2297 444 1 4.1499999999999998e-01 2.2419630517170508e+00 1.8409278046114899e+01 1.3530627750083394e+01 2 1 0
466 444 2 -8.2999999999999996e-01 4.0147276025575698e+00 1.7705010875452459e+01 1.3119518216277195e+01 6 -1 0
2768 444 1 4.1499999999999998e-01 4.0408745144122307e+00 1.9870904120544825e+01 1.4941858707329715e+01 1 0 0
2298 444 1 4.1499999999999998e-01 2.0470589701693855e+00 1.8748619813489817e+01 1.4993075844246547e+01 2 1 0
2332 444 2 -8.2999999999999996e-01 3.8206059789885809e+00 1.6994078237349974e+01 1.7026296999932494e+01 4 1 0
2769 444 1 4.1499999999999998e-01 3.3347928268187759e+00 2.0024798858647550e+01 1.6272143629633664e+01 1 0 0
1770 444 1 4.1499999999999998e-01 3.6194245554202391e+00 1.7068584867243231e+01 1.8977336675243169e+01 -7 2 0
2334 444 1 4.1499999999999998e-01 3.8594779478958499e+00 1.7909705287679468e+01 1.6749983748366038e+01 4 1 0
1768 444 2 -8.2999999999999996e-01 3.8891285187311442e+00 1.7337588782618646e+01 1.9855475903505926e+01 -7 2 0
3140 444 4 0.0000000000000000e+00 3.4729999999999999e+00 2.0648199999999999e+01 0.0000000000000000e+00 0 0 0
3141 444 4 -7.4069999999999997e-02 3.4700000000000002e+00 2.0664829999999998e+01 3.5802399999999999e+00 0 0 0
3162 444 4 0.0000000000000000e+00 3.4729999999999999e+00 2.2465050000000002e+01 1.8169999999999999e+00 0 0 0
3186 444 4 -7.4069999999999997e-02 3.4698099999999998e+00 2.4276700000000002e+01 3.5775800000000002e+00 0 0 0
3187 444 4 0.0000000000000000e+00 3.4729999999999999e+00 2.4282000000000000e+01 0.0000000000000000e+00 0 0 0
1948 444 2 -8.2999999999999996e-01 3.0522335424807796e+00 2.2346653178268653e+01 6.7444500571047330e+00 -2 -3 0
1949 444 1 4.1499999999999998e-01 3.8436116711234405e+00 2.2708399720641289e+01 6.3455867354178945e+00 -2 -3 0
1950 444 1 4.1499999999999998e-01 2.3361623192354037e+00 2.2686360206629818e+01 6.2077256684601574e+00 -2 -3 0
1823 444 1 4.1499999999999998e-01 3.7665523081498460e+00 2.3201206348311985e+01 1.3834787857572822e+01 -3 -4 0
1579 444 2 -8.2999999999999996e-01 3.2584849862993188e+00 2.2381889323624325e+01 9.6321676693536418e+00 -2 -1 0
1822 444 2 -8.2999999999999996e-01 2.9157294074602462e+00 2.3086825625216175e+01 1.4258165705816770e+01 -3 -4 0
1824 444 1 4.1499999999999998e-01 2.6989434946651016e+00 2.3954429477404204e+01 1.4599484474020111e+01 -3 -4 0
2372 444 1 4.1499999999999998e-01 2.7199176570336543e+00 2.2397585525495352e+01 1.5618236153025753e+01 -2 -4 0
1581 444 1 4.1499999999999998e-01 3.3771196530535361e+00 2.2383062523063444e+01 8.6823482622324786e+00 -2 -1 0
2371 444 2 -8.2999999999999996e-01 2.7254389538149946e+00 2.1839376410012338e+01 1.6395798946633398e+01 -2 -4 0
3176 444 4 0.0000000000000000e+00 3.4729999999999999e+00 2.7915800000000001e+01 0.0000000000000000e+00 0 0 0
3177 444 4 -7.4069999999999997e-02 3.4754100000000001e+00 2.7913029999999999e+01 3.5764300000000002e+00 0 0 0
3180 444 4 0.0000000000000000e+00 3.4729999999999999e+00 2.6098949999999999e+01 1.8169999999999999e+00 0 0 0
1653 444 1 4.1499999999999998e-01 3.1243870632375192e+00 2.5521720104299945e+01 6.0425116589804935e+00 -4 -2 0
1651 444 2 -8.2999999999999996e-01 3.4340118358726244e+00 2.5844258374760962e+01 6.8888764070802972e+00 -4 -2 0
1652 444 1 4.1499999999999998e-01 3.4994334601161694e+00 2.6792409530290332e+01 6.7750301759459637e+00 -4 -2 0
2167 444 2 -8.2999999999999996e-01 2.4621636634111179e+00 2.6376268655887742e+01 1.2252102257265074e+01 -1 1 0
2321 444 1 4.1499999999999998e-01 2.9013505119242584e+00 2.6300027901301156e+01 1.5431292127436329e+01 1 1 0
2169 444 1 4.1499999999999998e-01 2.2787012253535921e+00 2.6181900362918729e+01 1.3171229946759244e+01 -1 1 0
2320 444 2 -8.2999999999999996e-01 2.3222844563706597e+00 2.5809570904429378e+01 1.4847882995927515e+01 1 1 0
1686 444 1 4.1499999999999998e-01 3.7147718148650517e+00 2.8473006321329102e+01 1.5134260720111412e+01 0 -3 0
22 444 2 -8.2999999999999996e-01 3.8378975943434930e+00 2.7402670128591332e+01 1.6470525222959157e+01 2 5 0
24 444 1 4.1499999999999998e-01 3.3946567105533374e+00 2.7877888367413235e+01 1.7173331727703737e+01 2 5 0
2975 444 1 4.1499999999999998e-01 2.7050900257356165e+00 2.7497367996958992e+01 1.9452965749591527e+01 1 1 0
2974 444 2 -8.2999999999999996e-01 2.7965439210236882e+00 2.8230882737116360e+01 1.8844834078810951e+01 1 1 0
3196 444 4 0.0000000000000000e+00 3.4729999999999999e+00 3.1549700000000001e+01 0.0000000000000000e+00 0 0 0
3197 444 4 -7.4069999999999997e-02 3.4700000000000002e+00 3.1566330000000001e+01 3.5802399999999999e+00 0 0 0
3200 444 4 0.0000000000000000e+00 3.4729999999999999e+00 2.9732749999999999e+01 1.8169999999999999e+00 0 0 0
2052 444 1 4.1499999999999998e-01 2.1155927537113604e+00 3.1464282128539260e+01 6.5546541754857444e+00 -1 -4 0
2051 444 1 4.1499999999999998e-01 2.4330777648088722e+00 3.1733428834642282e+01 8.0102153395203111e+00 -1 -4 0
2416 444 2 -8.2999999999999996e-01 2.3998192158621245e+00 3.1534020071346283e+01 1.4943189470696529e+01 0 -3 0
1334 444 1 4.1499999999999998e-01 2.9795233560350707e+00 3.0972764241307548e+01 1.2200551606428832e+01 -2 0 0
1431 444 1 4.1499999999999998e-01 3.1796979799841143e+00 2.9131626388204985e+01 9.6929895165917443e+00 -2 -3 0
2417 444 1 4.1499999999999998e-01 2.7347641561138003e+00 3.0704250304360137e+01 1.4603297918994610e+01 0 -3 0
1684 444 2 -8.2999999999999996e-01 3.8143813505020261e+00 2.9205177197538852e+01 1.4525790839697441e+01 0 -3 0
1333 444 2 -8.2999999999999996e-01 3.9051778764813116e+00 3.0732602095236931e+01 1.2159104650717827e+01 -2 0 0
1335 444 1 4.1499999999999998e-01 3.9771855526261488e+00 2.9957507691898790e+01 1.2716128429643431e+01 -2 0 0
1429 444 2 -8.2999999999999996e-01 3.8916154054080518e+00 2.9727990407407724e+01 9.4611366571842765e+00 -2 -3 0
1430 444 1 4.1499999999999998e-01 3.9783591469293724e+00 2.9640586417637383e+01 8.5118903463834652e+00 -2 -3 0
1895 444 1 4.1499999999999998e-01 3.6973463068610846e+00 3.1704721070366904e+01 1.9031201737281279e+01 2 -1 0
3054 444 4 0.0000000000000000e+00 5.2898399999999999e+00 6.6205000000000003e-01 0.0000000000000000e+00 0 0 0
3055 444 4 -7.4069999999999997e-02 5.2759400000000003e+00 6.6879000000000000e-01 3.5798500000000000e+00 0 0 0
3057 444 4 0.0000000000000000e+00 5.2898399999999999e+00 2.4790000000000001e+00 1.8169999999999999e+00 0 0 0
2244 444 1 4.1499999999999998e-01 4.7597552021329008e+00 3.2006426562139114e+00 6.7276851280880248e+00 4 -1 0
2242 444 2 -8.2999999999999996e-01 5.3178202909586290e+00 2.4388518432226673e+00 6.8841172217083315e+00 4 -1 0
2243 444 1 4.1499999999999998e-01 5.5642199516609319e+00 2.1381902883968769e+00 6.0094048753982072e+00 4 -1 0
705 444 1 4.1499999999999998e-01 5.4757380394654032e+00 5.0985455968259152e-01 1.4677470496719497e+01 -3 0 0
473 444 1 4.1499999999999998e-01 4.3965509419520474e+00 2.7869870675635977e+00 1.1870833146608664e+01 -5 -4 0
474 444 1 4.1499999999999998e-01 5.4893426575143041e+00 3.7261356805261836e+00 1.1406396586297150e+01 -5 -4 0
472 444 2 -8.2999999999999996e-01 4.6266769233746654e+00 3.7147764241145400e+00 1.1821017995294179e+01 -5 -4 0
650 444 1 4.1499999999999998e-01 5.0016725337385166e+00 9.6007921747552338e-01 1.6487224699754940e+01 -1 -7 0
651 444 1 4.1499999999999998e-01 5.3476081473576329e+00 1.7061781751779731e-01 1.7731802660232084e+01 -1 -7 0
649 444 2 -8.2999999999999996e-01 5.4498056569109252e+00 1.0333089763459182e+00 1.7329866931703162e+01 -1 -7 0
3076 444 4 0.0000000000000000e+00 5.2898399999999999e+00 4.2959500000000004e+00 0.0000000000000000e+00 0 0 0
3077 444 4 0.0000000000000000e+00 5.2898399999999999e+00 6.1128000000000000e+00 1.8169999999999999e+00 0 0 0