LAMMPS data file via write_data, version 11 Aug 2017, timestep = 1000000

3561 atoms
11 atom types
2024 bonds
5 bond types
1018 angles
5 angle types
12 dihedrals
4 dihedral types
9 impropers
1 improper types

0.0000000000000000e+00 3.2704500000000003e+01 xlo xhi
0.0000000000000000e+00 3.2704500000000003e+01 ylo yhi
0.0000000000000000e+00 8.0000000000000000e+01 zlo zhi

Masses

1 1.0079
2 15.9994
3 39.0983
4 63.546
5 15.9994
6 12.011
7 12.011
8 15.9994
9 15.9994
10 15.9994
11 1.0079

Bond Coeffs # harmonic

1 450 0.9572
2 570 1.229
3 450 1.364
4 570 1.229
5 553 0.945

Angle Coeffs # harmonic

1 100 123.32
2 85 124
3 55 104.52
4 35 113
5 100 123.32

Dihedral Coeffs # charmm

1 0.922 1 180 0
2 3.741 2 0 0
3 0.922 1 0 0
4 3.741 2 180 0

Improper Coeffs # umbrella

1 21 0

Atoms # full

3049 444 4 -7.4069999999999997e-02 1.6850600000000000e+00 6.7144000000000004e-01 3.5968900000000001e+00 0 0 0
3051 444 4 0.0000000000000000e+00 1.6560500000000000e+00 2.4790000000000001e+00 1.8169999999999999e+00 0 0 0
3060 444 4 0.0000000000000000e+00 1.6560500000000000e+00 6.6205000000000003e-01 0.0000000000000000e+00 0 0 0
1518 444 1 4.1499999999999998e-01 5.0781830526321670e-01 5.5126540769825350e-01 6.6284185570539567e+00 2 3 0
1516 444 2 -8.2999999999999996e-01 1.2615542691468851e+00 1.1399730038979943e+00 6.6676377158532611e+00 2 3 0
2259 444 1 4.1499999999999998e-01 5.5900783419943412e-01 2.6121060682100934e+00 7.1120860183428958e+00 0 0 0
1517 444 1 4.1499999999999998e-01 2.0189602475732400e+00 5.6903350979139511e-01 6.5388099974640763e+00 2 3 0
2257 444 2 -8.2999999999999996e-01 9.8314151845123043e-02 3.4460929903613993e+00 7.2040598765195556e+00 0 0 0
2258 444 1 4.1499999999999998e-01 1.6777480915009590e-01 3.8550410757162314e+00 6.3414078021069944e+00 0 0 0
239 444 1 4.1499999999999998e-01 1.0723213422405202e+00 3.0990073461310770e+00 1.4077589263897433e+01 1 2 0
238 444 2 -8.2999999999999996e-01 1.9394060484331999e+00 2.7062276611240401e+00 1.3976989025425000e+01 1 2 0
2190 444 1 4.1499999999999998e-01 3.0155211808328536e-01 2.9317921299293287e-01 1.2682426857408432e+01 0 1 0
2281 444 2 -8.2999999999999996e-01 2.3367901944930342e-02 3.6917315785530329e+00 1.5849396199050481e+01 2 -3 0
2189 444 1 4.1499999999999998e-01 2.1954109213287262e-01 2.7670102485616083e-01 1.1170838789290460e+01 0 1 0
2188 444 2 -8.2999999999999996e-01 2.1593886435029039e-01 8.6910924567947800e-01 1.1922684707793188e+01 0 1 0
240 444 1 4.1499999999999998e-01 1.8495256857373925e+00 1.8281309518618696e+00 1.4347260165227990e+01 1 2 0
1181 444 1 4.1499999999999998e-01 5.7473129780139665e-01 2.4347506916854451e+00 1.9064340021073338e+01 3 0 0
1180 444 2 -8.2999999999999996e-01 5.8172506384119560e-01 3.2055288106000734e+00 1.8496815335317436e+01 3 0 0
289 444 2 -8.2999999999999996e-01 7.3831808673753319e-01 1.1750725460358360e+00 1.9872279987684085e+01 4 -8 0
2283 444 1 4.1499999999999998e-01 3.9252067818764119e-01 3.6826489074118607e+00 1.6732502623582278e+01 2 -3 0
1182 444 1 4.1499999999999998e-01 1.4922472287960487e+00 3.5007027119331058e+00 1.8504155858284086e+01 3 0 0
2390 444 1 4.1499999999999998e-01 1.6273256592616339e+00 6.3118236412935347e-02 1.6221917683595386e+01 2 3 0
290 444 1 4.1499999999999998e-01 4.3631223409171555e-01 3.2600108818788076e-01 1.9549630531941446e+01 4 -8 0
3066 444 4 0.0000000000000000e+00 1.6560500000000000e+00 4.2959500000000004e+00 0.0000000000000000e+00 0 0 0
3067 444 4 -7.4069999999999997e-02 1.6771100000000001e+00 4.2769199999999996e+00 3.5749399999999998e+00 0 0 0
3069 444 4 0.0000000000000000e+00 1.6560500000000000e+00 6.1128000000000000e+00 1.8169999999999999e+00 0 0 0
3086 444 4 0.0000000000000000e+00 1.6560500000000000e+00 7.9297500000000003e+00 0.0000000000000000e+00 0 0 0
3087 444 4 -7.4069999999999997e-02 1.6891600000000000e+00 7.9546299999999999e+00 3.5728399999999998e+00 0 0 0
822 444 1 4.1499999999999998e-01 1.7952258619035695e+00 5.5644216467097074e+00 6.2796874258318995e+00 -2 1 0
555 444 1 4.1499999999999998e-01 1.1386409176072811e+00 6.5579256240995791e+00 1.5033296364104078e+01 -1 -3 0
3002 444 1 4.1499999999999998e-01 8.2702117562383981e-01 5.4223832112712609e+00 1.3477809650154500e+01 4 6 0
3001 444 2 -8.2999999999999996e-01 6.5741743615671100e-01 5.7158291522125033e+00 1.2582624224707391e+01 4 6 0
76 444 2 -8.2999999999999996e-01 7.6043260838568028e-01 7.1959859544481350e+00 9.2731772415945333e+00 7 0 0
3003 444 1 4.1499999999999998e-01 3.6059034479431362e-01 4.9295411863280583e+00 1.2124500279667421e+01 4 6 0
77 444 1 4.1499999999999998e-01 1.5832536189750707e-01 7.0254813214552856e+00 9.9974891266157506e+00 7 0 0
2282 444 1 4.1499999999999998e-01 4.8118631837571540e-01 4.4054260863645975e+00 1.5405239522079759e+01 2 -3 0
553 444 2 -8.2999999999999996e-01 1.6783524913543213e+00 5.7691771215531071e+00 1.4980200611499200e+01 -1 -3 0
78 444 1 4.1499999999999998e-01 7.5143641085124879e-01 6.3889360906405575e+00 8.7585679753463328e+00 7 0 0
2205 444 1 4.1499999999999998e-01 8.1521902492674769e-02 4.8224118630577291e+00 1.9135686612437439e+01 2 1 0
3089 444 4 0.0000000000000000e+00 1.6560500000000000e+00 9.7467000000000006e+00 1.8169999999999999e+00 0 0 0
3106 444 4 -7.4069999999999997e-02 1.6850600000000000e+00 1.1572939999999999e+01 3.5968900000000001e+00 0 0 0
3117 444 4 0.0000000000000000e+00 1.6560500000000000e+00 1.1563549999999999e+01 0.0000000000000000e+00 0 0 0
1552 444 2 -8.2999999999999996e-01 7.9500738720599951e-01 9.4342567312631651e+00 7.6156847116737172e+00 3 4 0
641 444 1 4.1499999999999998e-01 1.2564255579696806e+00 1.1589354380594035e+01 6.5157380789771837e+00 1 0 0
640 444 2 -8.2999999999999996e-01 1.8909062512403347e+00 1.2189394699055326e+01 6.9076796103088123e+00 1 0 0
1553 444 1 4.1499999999999998e-01 1.5369147162182628e-02 9.8308576676087842e+00 7.2269635876827403e+00 3 4 0
2397 444 1 4.1499999999999998e-01 3.7723699278195433e-01 1.0984147321745334e+01 1.3124142976685743e+01 1 -1 0
2841 444 1 4.1499999999999998e-01 1.7696312680316106e+00 9.6799712227695380e+00 9.1755435421273468e+00 2 -1 0
1554 444 1 4.1499999999999998e-01 4.6431126308566611e-01 8.6742235077371408e+00 8.0944567284576596e+00 3 4 0
2840 444 1 4.1499999999999998e-01 1.4652267813331403e+00 1.1056341772872813e+01 9.7276643237580132e+00 2 -1 0
2839 444 2 -8.2999999999999996e-01 1.9657172640222571e+00 1.0261139869420264e+01 9.9104076136866173e+00 2 -1 0
20 444 1 4.1499999999999998e-01 1.2311410370861235e+00 9.6428506449273748e+00 1.9048909761690762e+01 5 2 0
19 444 2 -8.2999999999999996e-01 1.8014463261884703e+00 8.8964045073940419e+00 1.8865053377003296e+01 5 2 0
21 444 1 4.1499999999999998e-01 1.2341720725505363e+00 8.2638040901740446e+00 1.8424316448862591e+01 5 2 0
3108 444 4 0.0000000000000000e+00 1.6560500000000000e+00 1.3380500000000000e+01 1.8169999999999999e+00 0 0 0
3123 444 4 0.0000000000000000e+00 1.6560500000000000e+00 1.5197450000000000e+01 0.0000000000000000e+00 0 0 0
3124 444 4 -7.4069999999999997e-02 1.6771100000000001e+00 1.5178419999999999e+01 3.5749399999999998e+00 0 0 0
1192 444 2 -8.2999999999999996e-01 8.6548804082795958e-02 1.4399831200943037e+01 6.9525054436546494e+00 1 -1 0
642 444 1 4.1499999999999998e-01 1.5046837656972984e+00 1.3057311169818966e+01 6.7902670334720403e+00 1 0 0
2176 444 2 -8.2999999999999996e-01 2.8038068206012823e-01 1.2457316929513086e+01 9.7746234117130655e+00 -1 4 0
175 444 2 -8.2999999999999996e-01 1.1909241367382195e+00 1.4820296084318413e+01 1.3721240733980157e+01 -1 3 0
2347 444 2 -8.2999999999999996e-01 3.6197870844358965e-01 1.5779809327684596e+01 9.4010731065859705e+00 0 -4 0
176 444 1 4.1499999999999998e-01 1.5644005939230898e+00 1.5621112034432008e+01 1.3353216173475992e+01 -1 3 0
317 444 1 4.1499999999999998e-01 1.6191192115284392e-01 1.4248956857768693e+01 1.5034941570793258e+01 0 2 0
177 444 1 4.1499999999999998e-01 1.8387406149313916e+00 1.4142589289692692e+01 1.3528158437247502e+01 -1 3 0
17 444 1 4.1499999999999998e-01 1.7704914698305954e-01 1.4239208020289505e+01 1.2394459348516625e+01 2 -4 0
2349 444 1 4.1499999999999998e-01 3.6019350295283914e-02 1.5825440790826013e+01 8.5022404331863797e+00 0 -4 0
2732 444 1 4.1499999999999998e-01 1.3754505118725855e+00 1.3245099814797788e+01 1.8869094581508921e+01 3 5 0
3126 444 4 0.0000000000000000e+00 1.6560500000000000e+00 1.7014299999999999e+01 1.8169999999999999e+00 0 0 0
3143 444 4 0.0000000000000000e+00 1.6560500000000000e+00 1.8831250000000001e+01 0.0000000000000000e+00 0 0 0
3144 444 4 -7.4069999999999997e-02 1.6891600000000000e+00 1.8856130000000000e+01 3.5728399999999998e+00 0 0 0
2426 444 1 4.1499999999999998e-01 1.8788826861769161e+00 1.6695491098554331e+01 6.0984246866392935e+00 -1 -4 0
1288 444 2 -8.2999999999999996e-01 5.4849015539035895e-01 1.9369078015882547e+01 1.2525222609353278e+01 3 -1 0
1400 444 1 4.1499999999999998e-01 1.4535002159619692e+00 1.8705484192892943e+01 9.8554348813931547e+00 -3 1 0
1290 444 1 4.1499999999999998e-01 1.1827945400045741e+00 1.8668902894086099e+01 1.2678994446464996e+01 3 -1 0
2171 444 1 4.1499999999999998e-01 2.8145287406751041e-01 1.9994938165321759e+01 1.5570639280517092e+01 4 2 0
1289 444 1 4.1499999999999998e-01 1.0777235250005270e+00 2.0164875058999286e+01 1.2471815044306275e+01 3 -1 0
2348 444 1 4.1499999999999998e-01 3.2080640488215550e-01 1.6682294483794685e+01 9.7173920879645692e+00 0 -4 0
1454 444 1 4.1499999999999998e-01 1.1063531302815168e+00 1.6787884304797462e+01 1.6993384849024459e+01 0 -2 0
2647 444 2 -8.2999999999999996e-01 3.8462412075568780e-01 2.0339803600671885e+01 1.8230348115108377e+01 -1 3 0
1053 444 1 4.1499999999999998e-01 2.0180370404710652e+00 1.9048534012617875e+01 1.8574772192229361e+01 -1 -1 0
1453 444 2 -8.2999999999999996e-01 1.9299399857778912e+00 1.6375757274912910e+01 1.7254322744458197e+01 0 -2 0
3146 444 4 0.0000000000000000e+00 1.6560500000000000e+00 2.0648199999999999e+01 1.8169999999999999e+00 0 0 0
3163 444 4 -7.4069999999999997e-02 1.6850600000000000e+00 2.2474440000000001e+01 3.5968900000000001e+00 0 0 0
3165 444 4 0.0000000000000000e+00 1.6560500000000000e+00 2.4282000000000000e+01 1.8169999999999999e+00 0 0 0
3174 444 4 0.0000000000000000e+00 1.6560500000000000e+00 2.2465050000000002e+01 0.0000000000000000e+00 0 0 0
2619 444 1 4.1499999999999998e-01 1.1563818170809819e+00 2.2277346398223987e+01 6.8755184191164895e+00 5 0 0
2618 444 1 4.1499999999999998e-01 1.5984076083146688e+00 2.0832684651534016e+01 6.7782496918252644e+00 5 0 0
2617 444 2 -8.2999999999999996e-01 8.4742051600888069e-01 2.1380807158183554e+01 7.0058725807422251e+00 5 0 0
2015 444 1 4.1499999999999998e-01 6.4198349221712880e-01 2.1602476134676667e+01 1.0282223822177629e+01 0 1 0
2174 444 1 4.1499999999999998e-01 1.7307298233097307e-01 2.4415100674452606e+01 1.1339854832811454e+01 0 -4 0
2014 444 2 -8.2999999999999996e-01 1.3037562141402881e+00 2.1996750658542222e+01 9.7140368342356549e+00 0 1 0
2016 444 1 4.1499999999999998e-01 1.0405735503626976e+00 2.1745322240801762e+01 8.8287395791480154e+00 0 1 0
2006 444 1 4.1499999999999998e-01 2.0401259013599709e+00 2.4157124329600666e+01 8.5094641966172109e+00 1 1 0
1035 444 1 4.1499999999999998e-01 6.0409273507372030e-01 2.3921740053721404e+01 1.8842686150474300e+01 0 2 0
3180 444 4 0.0000000000000000e+00 1.6560500000000000e+00 2.6098949999999999e+01 0.0000000000000000e+00 0 0 0
3181 444 4 -7.4069999999999997e-02 1.6771100000000001e+00 2.6079920000000001e+01 3.5749399999999998e+00 0 0 0
3183 444 4 0.0000000000000000e+00 1.6560500000000000e+00 2.7915800000000001e+01 1.8169999999999999e+00 0 0 0
2933 444 1 4.1499999999999998e-01 1.0300071280010368e+00 2.7959307418001515e+01 6.7776971530655095e+00 6 4 0
2932 444 2 -8.2999999999999996e-01 1.9188982446039695e+00 2.7630057434920214e+01 6.9107345321385658e+00 6 4 0
1232 444 1 4.1499999999999998e-01 5.3364555098328648e-01 2.4531299983018709e+01 6.6697207193641557e+00 -1 0 0
1133 444 1 4.1499999999999998e-01 6.9973673044286755e-01 2.6071631774949740e+01 9.0580216210485016e+00 1 1 0
136 444 2 -8.2999999999999996e-01 1.3673552673151383e+00 2.5709932602349070e+01 1.5709681292104539e+01 3 -3 0
560 444 1 4.1499999999999998e-01 1.3604823796121652e+00 2.8084100958861171e+01 9.1049329787542668e+00 -1 -4 0
2773 444 2 -8.2999999999999996e-01 1.4275614261432679e+00 2.5752064512374517e+01 1.2733610905237272e+01 -3 -3 0
2774 444 1 4.1499999999999998e-01 8.4446193464067143e-01 2.6451477785898103e+01 1.2438570337060227e+01 -3 -3 0
137 444 1 4.1499999999999998e-01 1.8454681455156752e+00 2.5019106348571221e+01 1.5250988183111369e+01 3 -3 0
1625 444 1 4.1499999999999998e-01 1.7040029298507227e+00 2.7449057663509507e+01 1.9121464895957772e+01 -6 -1 0
1624 444 2 -8.2999999999999996e-01 1.9984234156144323e+00 2.6538802452630897e+01 1.9152833344936081e+01 -6 -1 0
1626 444 1 4.1499999999999998e-01 1.2750561110452225e+00 2.6039408426239522e+01 1.8773917218302032e+01 -6 -1 0
1033 444 2 -8.2999999999999996e-01 3.1719121331425743e-01 2.4570583148384436e+01 1.8200095997470378e+01 0 2 0
138 444 1 4.1499999999999998e-01 1.3518335785011693e+00 2.5425044024273451e+01 1.6623371367949584e+01 3 -3 0
3200 444 4 0.0000000000000000e+00 1.6560500000000000e+00 2.9732749999999999e+01 0.0000000000000000e+00 0 0 0
3201 444 4 -7.4069999999999997e-02 1.6891600000000000e+00 2.9757629999999999e+01 3.5728399999999998e+00 0 0 0
3203 444 4 0.0000000000000000e+00 1.6560500000000000e+00 3.1549700000000001e+01 1.8169999999999999e+00 0 0 0
449 444 1 4.1499999999999998e-01 1.0131962359411066e+00 3.0516122099808850e+01 6.5855888264043871e+00 1 -3 0
448 444 2 -8.2999999999999996e-01 1.5026918401863243e+00 3.0378032869703222e+01 7.3964882287837828e+00 1 -3 0
2095 444 2 -8.2999999999999996e-01 1.8846758218671851e+00 2.8947593512311499e+01 1.2356403069381946e+01 -5 2 0
378 444 1 4.1499999999999998e-01 9.8664829526961717e-01 3.1429949037636046e+01 8.8968891579394676e+00 -3 -2 0
561 444 1 4.1499999999999998e-01 1.3557257115127332e+00 2.9594677346794494e+01 9.2050920804180567e+00 -1 -4 0
1321 444 2 -8.2999999999999996e-01 1.0842605068374420e+00 3.1439694085665518e+01 1.3476803782721138e+01 1 2 0
1323 444 1 4.1499999999999998e-01 1.5913861707425365e+00 3.1853701699935097e+01 1.4175125727895976e+01 1 2 0
376 444 2 -8.2999999999999996e-01 6.4292561324846131e-01 3.1957373702124634e+01 9.6179369217784387e+00 -3 -2 0
1322 444 1 4.1499999999999998e-01 1.6350683661030929e+00 3.0716762656494581e+01 1.3176447936708065e+01 1 2 0
559 444 2 -8.2999999999999996e-01 1.6033111626148087e+00 2.8804954133546342e+01 9.6859989179476162e+00 -1 -4 0
2097 444 1 4.1499999999999998e-01 9.5619180226022571e-01 2.8777861667417366e+01 1.2515589758930757e+01 -5 2 0
2096 444 1 4.1499999999999998e-01 1.9776669004465610e+00 2.8899942254495834e+01 1.1404923222087891e+01 -5 2 0
2850 444 1 4.1499999999999998e-01 1.9561171930986345e+00 3.2466742573023879e+01 1.0937042720026666e+01 -8 -2 0
1499 444 1 4.1499999999999998e-01 6.0712357704049402e-01 2.9816706496088507e+01 1.9017012370284732e+01 -4 -6 0
232 444 2 -8.2999999999999996e-01 4.4429689082460000e-01 3.1722633645459993e+01 1.6896631129197512e+01 4 -2 0
1498 444 2 -8.2999999999999996e-01 6.1796534703757644e-01 2.8859598406227786e+01 1.9024671155278664e+01 -4 -6 0
233 444 1 4.1499999999999998e-01 7.7915327713519389e-02 3.2388244082425338e+01 1.6314428708894138e+01 4 -2 0
3050 444 4 0.0000000000000000e+00 3.4729999999999999e+00 6.6205000000000003e-01 1.8169999999999999e+00 0 0 0
3074 444 4 -7.4069999999999997e-02 3.4841799999999998e+00 2.4672399999999999e+00 3.5974400000000002e+00 0 0 0
3075 444 4 0.0000000000000000e+00 3.4729999999999999e+00 2.4790000000000001e+00 0.0000000000000000e+00 0 0 0
3019 444 2 -8.2999999999999996e-01 3.3818365140817179e+00 2.7725571604818953e+00 7.2237201297903164e+00 0 2 0
3021 444 1 4.1499999999999998e-01 2.9301965393768334e+00 1.9486298432302134e+00 7.0409703428722592e+00 0 2 0
2723 444 1 4.1499999999999998e-01 3.3156786218677317e+00 1.3748271892024764e+00 1.1515426389942414e+01 -4 -1 0
2722 444 2 -8.2999999999999996e-01 3.4892930178858741e+00 2.3021386008546130e+00 1.1677240409247291e+01 -4 -1 0
768 444 1 4.1499999999999998e-01 2.5832505314573333e+00 3.6976435391381988e+00 8.7806923810240320e+00 -4 3 0
2389 444 2 -8.2999999999999996e-01 2.2367937752842479e+00 6.0445156728319260e-01 1.5720180633063809e+01 2 3 0
2724 444 1 4.1499999999999998e-01 2.8852349068990013e+00 2.5402266983447870e+00 1.2380560970153457e+01 -4 -1 0
767 444 1 4.1499999999999998e-01 3.1588493765121015e+00 3.5905781484576789e+00 1.0176800803444481e+01 -4 3 0
531 444 1 4.1499999999999998e-01 4.0394916222756665e+00 3.0287033073645313e+00 1.4164967410636734e+01 3 0 0
1739 444 1 4.1499999999999998e-01 3.8660201353780894e+00 3.0705946713069436e+00 1.8157040758502873e+01 -2 -3 0
2391 444 1 4.1499999999999998e-01 2.6377048063058024e+00 1.1806207348701687e+00 1.6370974437719603e+01 2 3 0
1738 444 2 -8.2999999999999996e-01 3.7570011507815080e+00 2.3581450475803276e+00 1.7527149677713286e+01 -2 -3 0
3064 444 4 0.0000000000000000e+00 3.4729999999999999e+00 6.1128000000000000e+00 0.0000000000000000e+00 0 0 0
3065 444 4 -7.4069999999999997e-02 3.4686400000000002e+00 6.1124099999999997e+00 3.5883900000000000e+00 0 0 0
3068 444 4 0.0000000000000000e+00 3.4729999999999999e+00 4.2959500000000004e+00 1.8169999999999999e+00 0 0 0
3088 444 4 0.0000000000000000e+00 3.4729999999999999e+00 7.9297500000000003e+00 1.8169999999999999e+00 0 0 0
2675 444 1 4.1499999999999998e-01 3.2531456682506952e+00 7.7805834774790750e+00 6.1587155290328761e+00 1 0 0
821 444 1 4.1499999999999998e-01 2.7886346075582731e+00 4.5794490576962419e+00 6.8583615043939945e+00 -2 1 0
820 444 2 -8.2999999999999996e-01 2.6092401011798487e+00 5.5165003204096665e+00 6.7810023896925316e+00 -2 1 0
766 444 2 -8.2999999999999996e-01 2.6471800153073466e+00 4.1690581046306683e+00 9.6113028000752578e+00 -4 3 0
5 444 3 1.0000000000000000e+00 3.3960949765739339e+00 6.7518441215649911e+00 9.0387744200551996e+00 -1 1 0
2944 444 2 -8.2999999999999996e-01 3.2602337058155313e+00 6.4059576824254716e+00 1.1652897560492521e+01 0 -2 0
2945 444 1 4.1499999999999998e-01 3.5888170879166967e+00 6.9171340594548489e+00 1.2392467528937976e+01 0 -2 0
2946 444 1 4.1499999999999998e-01 2.4586968359425505e+00 5.9979225139781640e+00 1.1980431163354298e+01 0 -2 0
554 444 1 4.1499999999999998e-01 2.4564023623689732e+00 5.9754577055041311e+00 1.5498195484264629e+01 -1 -3 0
655 444 2 -8.2999999999999996e-01 3.7250832938135034e+00 6.1421429607181981e+00 1.6381168420076861e+01 -1 -3 0
1163 444 1 4.1499999999999998e-01 3.8565050833624905e+00 5.2519325063694984e+00 1.9475847889874935e+01 -2 2 0
657 444 1 4.1499999999999998e-01 3.9077068966410398e+00 5.7102579537780223e+00 1.7215647798132782e+01 -1 -3 0
3084 444 4 0.0000000000000000e+00 3.4729999999999999e+00 9.7467000000000006e+00 0.0000000000000000e+00 0 0 0
3085 444 4 -7.4069999999999997e-02 3.4838499999999999e+00 9.7718200000000000e+00 3.5967799999999999e+00 0 0 0
3107 444 4 0.0000000000000000e+00 3.4729999999999999e+00 1.1563549999999999e+01 1.8169999999999999e+00 0 0 0
930 444 1 4.1499999999999998e-01 3.4748594763950038e+00 1.1506174241521519e+01 7.0481687858150313e+00 2 -1 0
2676 444 1 4.1499999999999998e-01 2.4897155015537309e+00 8.9719792553249604e+00 6.6969034127049110e+00 1 0 0
2674 444 2 -8.2999999999999996e-01 3.3081194149533717e+00 8.4868857364844299e+00 6.8024138570663037e+00 1 0 0
1150 444 2 -8.2999999999999996e-01 2.2379484328601356e+00 1.0837665396101565e+01 1.2603340990892942e+01 -3 0 0
1151 444 1 4.1499999999999998e-01 2.6863071161084666e+00 1.0265906535819745e+01 1.3226477004030581e+01 -3 0 0
1152 444 1 4.1499999999999998e-01 2.2424726937986441e+00 1.0347162566331937e+01 1.1781380175774698e+01 -3 0 0
525 444 1 4.1499999999999998e-01 3.0944366894093549e+00 9.1430113801932684e+00 1.9790182077814659e+01 -4 -3 0
3125 444 4 0.0000000000000000e+00 3.4729999999999999e+00 1.5197450000000000e+01 1.8169999999999999e+00 0 0 0
3131 444 4 -7.4069999999999997e-02 3.4841799999999998e+00 1.3368740000000001e+01 3.5974400000000002e+00 0 0 0
3132 444 4 0.0000000000000000e+00 3.4729999999999999e+00 1.3380500000000000e+01 0.0000000000000000e+00 0 0 0
2425 444 2 -8.2999999999999996e-01 2.6213025770516620e+00 1.6319983155517196e+01 6.5717516107929352e+00 -1 -4 0
2427 444 1 4.1499999999999998e-01 2.7107613335100464e+00 1.5436060690728844e+01 6.2155070178234091e+00 -1 -4 0
2847 444 1 4.1499999999999998e-01 3.6023806560777287e+00 1.3320645347834764e+01 1.2051133929391884e+01 -1 2 0
2846 444 1 4.1499999999999998e-01 2.6403950933499338e+00 1.2302724889404610e+01 1.2625866555784960e+01 -1 2 0
2845 444 2 -8.2999999999999996e-01 3.0955170255042446e+00 1.3117807481334040e+01 1.2837376935252724e+01 -1 2 0
8 444 3 1.0000000000000000e+00 2.4063981952256177e+00 1.3928311323799241e+01 9.3599375915503806e+00 0 0 0
701 444 1 4.1499999999999998e-01 2.9934354708604438e+00 1.3898485557770440e+01 1.4876167497192810e+01 3 0 0
700 444 2 -8.2999999999999996e-01 3.3735176937483660e+00 1.4162885784652312e+01 1.5713939717571266e+01 3 0 0
702 444 1 4.1499999999999998e-01 2.9025878928424200e+00 1.4962236309104012e+01 1.5949516022927186e+01 3 0 0
327 444 1 4.1499999999999998e-01 3.8053054551440892e+00 1.2453182828079095e+01 1.8547922019489516e+01 -1 1 0
2733 444 1 4.1499999999999998e-01 2.0996974483407609e+00 1.4552412351609016e+01 1.8627649216817304e+01 3 5 0
2731 444 2 -8.2999999999999996e-01 2.2250221435830451e+00 1.3671660905018900e+01 1.8980924072796846e+01 3 5 0
326 444 1 4.1499999999999998e-01 4.0432558678472885e+00 1.2576972458240256e+01 1.7057972004769606e+01 -1 1 0
3121 444 4 0.0000000000000000e+00 3.4729999999999999e+00 1.7014299999999999e+01 0.0000000000000000e+00 0 0 0
3122 444 4 -7.4069999999999997e-02 3.4686400000000002e+00 1.7013909999999999e+01 3.5883900000000000e+00 0 0 0
3145 444 4 0.0000000000000000e+00 3.4729999999999999e+00 1.8831250000000001e+01 1.8169999999999999e+00 0 0 0
799 444 2 -8.2999999999999996e-01 2.9470764851175626e+00 1.9611854412238497e+01 7.0395816147463188e+00 2 1 0
801 444 1 4.1499999999999998e-01 3.0664277204948247e+00 1.8853036956947467e+01 6.4684568384527212e+00 2 1 0
800 444 1 4.1499999999999998e-01 3.7766329696567325e+00 2.0086270386349444e+01 6.9848282890108946e+00 2 1 0
1256 444 1 4.1499999999999998e-01 2.4581221679353757e+00 1.8002039649515662e+01 1.4218974119301594e+01 4 0 0
15 444 1 4.1499999999999998e-01 3.3872817411166043e+00 1.9398900527448994e+01 1.1254596507195306e+01 1 3 0
1255 444 2 -8.2999999999999996e-01 2.5414374143497196e+00 1.7577260017164196e+01 1.3365245415385221e+01 4 0 0
13 444 2 -8.2999999999999996e-01 3.9007990862401796e+00 1.9870710102516551e+01 1.1910285281187225e+01 1 3 0
1399 444 2 -8.2999999999999996e-01 2.3656162475412583e+00 1.8971386371020500e+01 9.7389323946286339e+00 -3 1 0
1257 444 1 4.1499999999999998e-01 3.4854353261148625e+00 1.7505363488912057e+01 1.3224069261205294e+01 4 0 0
1401 444 1 4.1499999999999998e-01 2.4432882109816170e+00 1.9159019030760888e+01 8.8035211461562835e+00 -3 1 0
686 444 1 4.1499999999999998e-01 3.6997208996275899e+00 1.6973196122523429e+01 8.4190672686086288e+00 0 3 0
196 444 2 -8.2999999999999996e-01 2.6480029751881040e+00 1.9207209129082134e+01 1.5617670068932465e+01 0 2 0
197 444 1 4.1499999999999998e-01 3.4780743560941101e+00 1.9647631881424552e+01 1.5435346832112367e+01 0 2 0
687 444 1 4.1499999999999998e-01 3.2392177968860598e+00 1.7078628502755567e+01 9.8573704932841739e+00 0 3 0
685 444 2 -8.2999999999999996e-01 3.7240297494301329e+00 1.6511856866338547e+01 9.2574038305394808e+00 0 3 0
1052 444 1 4.1499999999999998e-01 3.0832843389786726e+00 1.8065154373686219e+01 1.9010786862220723e+01 -1 -1 0
198 444 1 4.1499999999999998e-01 2.7571611747459985e+00 1.8843666799825879e+01 1.6496393388518271e+01 0 2 0
1455 444 1 4.1499999999999998e-01 2.5223991576738558e+00 1.7108596260847801e+01 1.7422165646765070e+01 0 -2 0
1051 444 2 -8.2999999999999996e-01 2.8766151527450070e+00 1.8704204078480206e+01 1.8328778186860216e+01 -1 -1 0
3141 444 4 0.0000000000000000e+00 3.4729999999999999e+00 2.0648199999999999e+01 0.0000000000000000e+00 0 0 0
3142 444 4 -7.4069999999999997e-02 3.4838499999999999e+00 2.0673320000000000e+01 3.5967799999999999e+00 0 0 0
3164 444 4 0.0000000000000000e+00 3.4729999999999999e+00 2.2465050000000002e+01 1.8169999999999999e+00 0 0 0
3188 444 4 -7.4069999999999997e-02 3.4841799999999998e+00 2.4270240000000001e+01 3.5974400000000002e+00 0 0 0
3189 444 4 0.0000000000000000e+00 3.4729999999999999e+00 2.4282000000000000e+01 0.0000000000000000e+00 0 0 0
2024 444 1 4.1499999999999998e-01 2.6147015715089261e+00 2.4301840312686455e+01 6.2988481672804939e+00 -2 1 0
2025 444 1 4.1499999999999998e-01 2.9420617819360597e+00 2.2824401495576421e+01 6.2551982991794253e+00 -2 1 0
2023 444 2 -8.2999999999999996e-01 2.2113928412285060e+00 2.3435311171123512e+01 6.3508279338603444e+00 -2 1 0
1248 444 1 4.1499999999999998e-01 3.6963667908356075e+00 2.4267112460583242e+01 1.1291690037693749e+01 2 2 0
1634 444 1 4.1499999999999998e-01 2.9917381480652478e+00 2.2438269200121947e+01 1.0457526899092390e+01 -3 1 0
1633 444 2 -8.2999999999999996e-01 3.7964764906304032e+00 2.2481359377378755e+01 1.0974026039759416e+01 -3 1 0
2637 444 1 4.1499999999999998e-01 3.5458326067488000e+00 2.2900355308814785e+01 1.5278544117989204e+01 3 2 0
1635 444 1 4.1499999999999998e-01 3.8618677123812608e+00 2.1621109689550046e+01 1.1388666128483349e+01 -3 1 0
667 444 2 -8.2999999999999996e-01 2.2234489839590603e+00 2.1189633595354053e+01 1.3476841756650577e+01 -1 6 0
668 444 1 4.1499999999999998e-01 2.4320963282945365e+00 2.1131790831876579e+01 1.4409232745417995e+01 -1 6 0
2809 444 2 -8.2999999999999996e-01 2.4379626059906068e+00 2.3901261097327996e+01 1.4203122617674509e+01 -2 -1 0
669 444 1 4.1499999999999998e-01 2.8716669859167832e+00 2.0628928811559337e+01 1.3050628653883683e+01 -1 6 0
2810 444 1 4.1499999999999998e-01 2.3047348420751903e+00 2.3161132749711044e+01 1.3610929643454710e+01 -2 -1 0
2153 444 1 4.1499999999999998e-01 3.0571901702702520e+00 2.3040763752812996e+01 1.8769668042854459e+01 0 4 0
2154 444 1 4.1499999999999998e-01 2.3051447120973565e+00 2.1759748398098719e+01 1.8477567621388065e+01 0 4 0
2152 444 2 -8.2999999999999996e-01 2.9428616372713461e+00 2.2365893147174752e+01 1.8100555895320916e+01 0 4 0
2636 444 1 4.1499999999999998e-01 3.7443263271572054e+00 2.2262117946988752e+01 1.6636906577583208e+01 3 2 0
3178 444 4 0.0000000000000000e+00 3.4729999999999999e+00 2.7915800000000001e+01 0.0000000000000000e+00 0 0 0
3179 444 4 -7.4069999999999997e-02 3.4686400000000002e+00 2.7915410000000001e+01 3.5883900000000000e+00 0 0 0
3182 444 4 0.0000000000000000e+00 3.4729999999999999e+00 2.6098949999999999e+01 1.8169999999999999e+00 0 0 0
357 444 1 4.1499999999999998e-01 2.9326603012003116e+00 2.6486649110058398e+01 7.0085572702609813e+00 0 1 0
2934 444 1 4.1499999999999998e-01 2.4850957829258280e+00 2.8361756402316477e+01 6.6652365734829528e+00 6 4 0
355 444 2 -8.2999999999999996e-01 3.6557762974436065e+00 2.5862047755098438e+01 7.0652001053454061e+00 0 1 0
2007 444 1 4.1499999999999998e-01 2.6720474364396427e+00 2.5531682692183445e+01 8.5656783224291093e+00 1 1 0
2005 444 2 -8.2999999999999996e-01 2.1447545542735398e+00 2.4919422756832827e+01 9.0788380112480915e+00 1 1 0
1247 444 1 4.1499999999999998e-01 3.1812804689163086e+00 2.5386784549981190e+01 1.0412533771388528e+01 2 2 0
2752 444 2 -8.2999999999999996e-01 3.0074247609808462e+00 2.7571910591346441e+01 1.4902926064318445e+01 1 3 0
618 444 1 4.1499999999999998e-01 3.2900137893849042e+00 2.8149668229492750e+01 9.7447295430797052e+00 1 1 0
2754 444 1 4.1499999999999998e-01 2.6916310125165608e+00 2.8069913868823178e+01 1.4148937348298164e+01 1 3 0
2753 444 1 4.1499999999999998e-01 2.3219863008807025e+00 2.6924199493072319e+01 1.5066868218918623e+01 1 3 0
1246 444 2 -8.2999999999999996e-01 3.8032419304840972e+00 2.5202013597598167e+01 1.1116277682634012e+01 2 2 0
2775 444 1 4.1499999999999998e-01 2.2391199266133817e+00 2.5894749014564333e+01 1.2246531559893624e+01 -3 -3 0
2811 444 1 4.1499999999999998e-01 2.1601132294756380e+00 2.4665575462468848e+01 1.3698290510376086e+01 -2 -1 0
2808 444 1 4.1499999999999998e-01 3.6910869534465123e+00 2.6757844141721804e+01 1.8021765834894733e+01 -1 1 0
2807 444 1 4.1499999999999998e-01 3.7129495609019858e+00 2.6974885304149268e+01 1.6523663501706739e+01 -1 1 0
1025 444 1 4.1499999999999998e-01 3.0141806477568056e+00 2.5400901882894544e+01 1.9656489552199407e+01 -3 0 0
1024 444 2 -8.2999999999999996e-01 3.6486313819051994e+00 2.4742692218008248e+01 1.9940151706396879e+01 -3 0 0
3198 444 4 0.0000000000000000e+00 3.4729999999999999e+00 3.1549700000000001e+01 0.0000000000000000e+00 0 0 0
3199 444 4 -7.4069999999999997e-02 3.4838499999999999e+00 3.1574819999999999e+01 3.5967799999999999e+00 0 0 0
3202 444 4 0.0000000000000000e+00 3.4729999999999999e+00 2.9732749999999999e+01 1.8169999999999999e+00 0 0 0
450 444 1 4.1499999999999998e-01 2.4199921830142754e+00 3.0362693137666298e+01 7.1234370215190763e+00 1 -3 0
1572 444 1 4.1499999999999998e-01 3.9432641588556239e+00 3.1784826423425539e+01 6.2362936631055250e+00 0 1 0
2447 444 1 4.1499999999999998e-01 3.8266477845831335e+00 2.9093220444486914e+01 1.2228882889145275e+01 -1 2 0
2849 444 1 4.1499999999999998e-01 3.3707960626658515e+00 3.2193751232382787e+01 1.0472224852136565e+01 -8 -2 0
1196 444 1 4.1499999999999998e-01 3.1806853340744432e+00 3.0018208013066840e+01 1.5890378400526595e+01 1 3 0
1195 444 2 -8.2999999999999996e-01 4.0561198258203479e+00 3.0139156483226039e+01 1.5522658370667763e+01 1 3 0
2848 444 2 -8.2999999999999996e-01 2.8714662062410161e+00 3.2645163657643835e+01 1.1152761337178131e+01 -8 -2 0
3054 444 4 0.0000000000000000e+00 5.2898399999999999e+00 6.6205000000000003e-01 0.0000000000000000e+00 0 0 0
3055 444 4 -7.4069999999999997e-02 5.2774200000000002e+00 6.7093000000000003e-01 3.5970100000000000e+00 0 0 0
3057 444 4 0.0000000000000000e+00 5.2898399999999999e+00 2.4790000000000001e+00 1.8169999999999999e+00 0 0 0