LAMMPS data file via write_data, version 11 Aug 2017, timestep = 1000000

3570 atoms
11 atom types
2024 bonds
5 bond types
1018 angles
5 angle types
12 dihedrals
4 dihedral types
9 impropers
1 improper types

0.0000000000000000e+00 3.2704500000000003e+01 xlo xhi
0.0000000000000000e+00 3.2704500000000003e+01 ylo yhi
0.0000000000000000e+00 6.5000000000000000e+01 zlo zhi

Masses

1 1.0079
2 15.9994
3 39.0983
4 63.546
5 12.011
6 1.0079
7 12.011
8 15.9994
9 15.9994
10 15.9994
11 1.0079

Bond Coeffs # harmonic

1 450 0.9572
2 570 1.229
3 450 1.364
4 570 1.229
5 553 0.945

Angle Coeffs # harmonic

1 100 123.32
2 85 124
3 55 104.52
4 35 113
5 100 123.32

Dihedral Coeffs # charmm

1 0.922 1 180 0
2 3.741 2 0 0
3 0.922 1 0 0
4 3.741 2 180 0

Improper Coeffs # umbrella

1 21 0

Atoms # full

3049 444 4 -7.4069999999999997e-02 1.6669200000000000e+00 6.6776999999999997e-01 3.5964100000000001e+00 0 0 0
3050 444 4 0.0000000000000000e+00 3.4729999999999999e+00 6.6205000000000003e-01 1.8169999999999999e+00 0 0 0
3051 444 4 0.0000000000000000e+00 1.6560500000000000e+00 2.4790000000000001e+00 1.8169999999999999e+00 0 0 0
3054 444 4 0.0000000000000000e+00 5.2898399999999999e+00 6.6205000000000003e-01 0.0000000000000000e+00 0 0 0
3055 444 4 -7.4069999999999997e-02 5.2888299999999999e+00 6.6840999999999995e-01 3.5924800000000001e+00 0 0 0
3057 444 4 0.0000000000000000e+00 5.2898399999999999e+00 2.4790000000000001e+00 1.8169999999999999e+00 0 0 0
3060 444 4 0.0000000000000000e+00 1.6560500000000000e+00 6.6205000000000003e-01 0.0000000000000000e+00 0 0 0
3064 444 4 0.0000000000000000e+00 3.4729999999999999e+00 6.1128000000000000e+00 0.0000000000000000e+00 0 0 0
3065 444 4 -7.4069999999999997e-02 3.4709200000000000e+00 6.1155999999999997e+00 3.5893000000000002e+00 0 0 0
3066 444 4 0.0000000000000000e+00 1.6560500000000000e+00 4.2959500000000004e+00 0.0000000000000000e+00 0 0 0
3067 444 4 -7.4069999999999997e-02 1.6718000000000000e+00 4.2853100000000000e+00 3.5766100000000001e+00 0 0 0
3068 444 4 0.0000000000000000e+00 3.4729999999999999e+00 4.2959500000000004e+00 1.8169999999999999e+00 0 0 0
3069 444 4 0.0000000000000000e+00 1.6560500000000000e+00 6.1128000000000000e+00 1.8169999999999999e+00 0 0 0
3074 444 4 -7.4069999999999997e-02 3.4846699999999999e+00 2.4684499999999998e+00 3.5945800000000001e+00 0 0 0
3075 444 4 0.0000000000000000e+00 3.4729999999999999e+00 2.4790000000000001e+00 0.0000000000000000e+00 0 0 0
3076 444 4 0.0000000000000000e+00 5.2898399999999999e+00 4.2959500000000004e+00 0.0000000000000000e+00 0 0 0
3077 444 4 0.0000000000000000e+00 5.2898399999999999e+00 6.1128000000000000e+00 1.8169999999999999e+00 0 0 0
3086 444 4 0.0000000000000000e+00 1.6560500000000000e+00 7.9297500000000003e+00 0.0000000000000000e+00 0 0 0
3087 444 4 -7.4069999999999997e-02 1.6726000000000001e+00 7.9456800000000003e+00 3.5820099999999999e+00 0 0 0
3088 444 4 0.0000000000000000e+00 3.4729999999999999e+00 7.9297500000000003e+00 1.8169999999999999e+00 0 0 0
3092 444 4 0.0000000000000000e+00 5.2898399999999999e+00 7.9297500000000003e+00 0.0000000000000000e+00 0 0 0
3093 444 4 -7.4069999999999997e-02 5.2963800000000001e+00 7.9169000000000000e+00 3.5772499999999998e+00 0 0 0
3101 444 4 -7.4069999999999997e-02 5.2920199999999999e+00 4.3031600000000001e+00 3.5874000000000001e+00 0 0 0
2410 444 2 -8.2999999999999996e-01 1.7031473332371605e-01 1.5637006422772122e+00 7.0831826041325563e+00 0 -4 0
324 444 1 4.1499999999999998e-01 3.6358592937180019e+00 1.6934988248688496e-01 5.9682969710753664e+00 1 0 0
2411 444 1 4.1499999999999998e-01 7.9259109110369852e-01 1.4060513953526206e+00 6.3731465902795881e+00 0 -4 0
273 444 1 4.1499999999999998e-01 2.6161803745760088e+00 4.6691912846306467e+00 7.3246088706230204e+00 1 -1 0
323 444 1 4.1499999999999998e-01 3.9814984830619595e+00 1.4793317700588342e+00 6.6438531589516296e+00 1 0 0
272 444 1 4.1499999999999998e-01 3.2199674593224836e+00 3.6706625086427769e+00 6.3601003524485478e+00 1 -1 0
322 444 2 -8.2999999999999996e-01 3.4607488677841260e+00 6.8406345302474580e-01 6.7561028606801408e+00 1 0 0
271 444 2 -8.2999999999999996e-01 2.9502403548252523e+00 3.7736783445081103e+00 7.2727158660028266e+00 1 -1 0
468 444 1 4.1499999999999998e-01 3.2885413223285340e+00 6.7672689485733093e+00 7.2705755383308288e+00 3 0 0
466 444 2 -8.2999999999999996e-01 2.3508651735092680e+00 6.5749437274976374e+00 7.2678642279547594e+00 3 0 0
1144 444 2 -8.2999999999999996e-01 5.1845345481826079e+00 7.2750157260347157e+00 7.0669386286335962e+00 1 -1 0
467 444 1 4.1499999999999998e-01 2.0513058765729437e+00 6.8532275313073931e+00 6.4023848755550130e+00 3 0 0
1146 444 1 4.1499999999999998e-01 5.3478383797589792e+00 6.9769089028408002e+00 6.1721223667620153e+00 1 -1 0
2412 444 1 4.1499999999999998e-01 2.4229187163064264e-01 2.5013676396007090e+00 7.2615993693353555e+00 0 -4 0
2132 444 1 4.1499999999999998e-01 5.2818357423775997e-01 4.8863580055437295e+00 1.6059273337272931e+01 3 1 0
2946 444 1 4.1499999999999998e-01 2.5987992218863649e+00 1.1085858782984485e-01 1.5606724633519423e+01 2 2 0
2827 444 2 -8.2999999999999996e-01 5.9530042865004762e-01 6.4501405949242470e+00 9.1696497272591380e+00 3 0 0
2829 444 1 4.1499999999999998e-01 1.2084610019477957e+00 6.7320607971145252e+00 8.4908367863291705e+00 3 0 0
2125 444 2 -8.2999999999999996e-01 1.8366023078627667e+00 1.6424981104003460e+00 9.4312214751315526e+00 3 1 0
2126 444 1 4.1499999999999998e-01 1.4319964810442145e+00 1.9764433192421651e+00 8.6305925722805306e+00 3 1 0
2974 444 2 -8.2999999999999996e-01 2.5178454915903998e+00 3.5785995275769888e+00 1.1905865996910858e+01 -3 6 0
64 444 2 -8.2999999999999996e-01 4.8731833145553916e+00 4.7558729752054987e+00 1.1147616574467799e+01 0 -4 0
1536 444 1 4.1499999999999998e-01 1.7432480962105676e+00 6.4990334404895389e+00 1.1939540773548547e+01 1 0 0
2718 444 1 4.1499999999999998e-01 1.8041500878085801e+00 2.0218518553702016e+00 1.2311473295691540e+01 5 -4 0
2976 444 1 4.1499999999999998e-01 3.3941288060472465e+00 3.8546183042046871e+00 1.1637215560637070e+01 -3 6 0
2975 444 1 4.1499999999999998e-01 1.9579589290878869e+00 4.3286190913074103e+00 1.1705292934649822e+01 -3 6 0
2717 444 1 4.1499999999999998e-01 1.6549440227228236e+00 6.4341295229523254e-01 1.1703576252444281e+01 5 -4 0
1535 444 1 4.1499999999999998e-01 7.0418427330749400e-01 6.0275472439732720e+00 1.0944581896090719e+01 1 0 0
1534 444 2 -8.2999999999999996e-01 1.1617180196728234e+00 5.7645344738310671e+00 1.1743155675033501e+01 1 0 0
2133 444 1 4.1499999999999998e-01 1.2237201029438862e+00 3.5989447761215243e+00 1.5671083538375679e+01 3 1 0
2716 444 2 -8.2999999999999996e-01 1.4956323748665588e+00 1.1372823393969687e+00 1.2507904937563840e+01 5 -4 0
66 444 1 4.1499999999999998e-01 4.7258159677214158e+00 5.5146124834385484e+00 1.0582967109054168e+01 0 -4 0
2757 444 1 4.1499999999999998e-01 2.5379365403223293e+00 3.1971916789752179e+00 1.3772025694494401e+01 0 -2 0
2755 444 2 -8.2999999999999996e-01 2.5862073056399213e+00 3.2036052253033152e+00 1.4727986799092845e+01 0 -2 0
2127 444 1 4.1499999999999998e-01 2.2526664139317543e+00 2.4081894429511865e+00 9.8272509586567285e+00 3 1 0
2756 444 1 4.1499999999999998e-01 3.3110976705508666e+00 2.6139881461256200e+00 1.4935636833088431e+01 0 -2 0
2496 444 1 4.1499999999999998e-01 3.0121507392976810e-02 7.2924737713205348e+00 1.3067031584947907e+01 0 3 0
2057 444 1 4.1499999999999998e-01 4.3677418965583783e+00 3.2339569774319661e+00 8.2675557927733578e+00 2 -2 0
2944 444 2 -8.2999999999999996e-01 3.4244624755098902e+00 5.3536057259546121e-01 1.5373677082116714e+01 2 2 0
2828 444 1 4.1499999999999998e-01 2.4824319960990540e-01 5.6177472812618818e+00 8.8488623862312430e+00 3 0 0
307 444 2 -8.2999999999999996e-01 4.8181884250418641e+00 1.2328651697561346e+00 1.0325973542960353e+01 5 -1 0
550 444 2 -8.2999999999999996e-01 3.0368629604419337e+00 7.5287635509244843e+00 1.3036932022226431e+01 1 2 0
308 444 1 4.1499999999999998e-01 5.2208156288992917e+00 1.4844907151850211e+00 1.1157122006687668e+01 5 -1 0
1725 444 1 4.1499999999999998e-01 2.9163994928173467e+00 7.2332814752878356e+00 1.6004104233607244e+01 2 3 0
1482 444 1 4.1499999999999998e-01 4.5488623016940801e+00 5.9873315341896420e+00 1.4958437325888436e+01 3 -2 0
1480 444 2 -8.2999999999999996e-01 3.8294791668632704e+00 5.8757085865519949e+00 1.5579935629153328e+01 3 -2 0
1481 444 1 4.1499999999999998e-01 3.4349909862300847e+00 5.0365989831779672e+00 1.5342225696609926e+01 3 -2 0
1723 444 2 -8.2999999999999996e-01 2.2150170888423952e+00 7.8669403301973233e+00 1.6155004796063004e+01 2 3 0
2056 444 2 -8.2999999999999996e-01 5.0770014349646155e+00 3.3421656864655875e+00 8.9011752707332246e+00 2 -2 0
975 444 1 4.1499999999999998e-01 1.0458904182704588e-01 2.0366062440678543e+00 1.6199873364655051e+01 3 2 0
2131 444 2 -8.2999999999999996e-01 5.0804585587368856e-01 3.9408330676294967e+00 1.6206951658673976e+01 3 1 0
2748 444 1 4.1499999999999998e-01 5.1229849780513144e+00 5.7781140647152629e+00 1.2878772300868089e+01 2 -1 0
552 444 1 4.1499999999999998e-01 3.3718386385149564e+00 7.1519503666297197e+00 1.3850587326783749e+01 1 2 0
551 444 1 4.1499999999999998e-01 3.8176263796609193e+00 7.6859001048920579e+00 1.2505943823349810e+01 1 2 0
309 444 1 4.1499999999999998e-01 4.8410491845193233e+00 2.0303503051694238e+00 9.7970815840175565e+00 5 -1 0
795 444 1 4.1499999999999998e-01 2.1092356237726775e+00 1.4874185315782110e-01 9.0989372238501591e+00 -4 -2 0
1272 444 1 4.1499999999999998e-01 1.9835697094459703e+00 5.5731266800542398e+00 2.1191114780224492e+01 3 3 0
1675 444 2 -8.2999999999999996e-01 4.3213944192274569e+00 1.2327362679028984e+00 1.7854980777556570e+01 0 1 0
1677 444 1 4.1499999999999998e-01 4.0530665904794114e+00 1.1912100994219217e+00 1.6937097922004050e+01 0 1 0
1135 444 2 -8.2999999999999996e-01 4.7995204331128329e+00 5.2022672043316573e+00 2.2912811235733074e+01 3 -2 0
818 444 1 4.1499999999999998e-01 5.4156606206057498e+00 6.3363963735986939e+00 2.4161526767172955e+01 3 -2 0
1136 444 1 4.1499999999999998e-01 4.1208085161311061e+00 5.3921980365227835e+00 2.2265116410688879e+01 3 -2 0
369 444 1 4.1499999999999998e-01 2.3574409553529008e+00 3.1627886371555127e+00 2.2482766727243526e+01 0 1 0
1926 444 1 4.1499999999999998e-01 4.0945881810696445e+00 5.7624955637583417e+00 1.9236963625768190e+01 -3 -1 0
1270 444 2 -8.2999999999999996e-01 1.6072292997517190e+00 4.9128268341116090e+00 2.1773011558246022e+01 3 3 0
1700 444 1 4.1499999999999998e-01 4.9053586011764816e+00 2.9949574441256153e+00 1.7833322582570652e+01 5 0 0
1924 444 2 -8.2999999999999996e-01 3.1772908130395097e+00 5.5404582577623698e+00 1.9077286364253780e+01 -3 -1 0
2457 444 1 4.1499999999999998e-01 8.8044498190127540e-01 7.5078665312816453e+00 2.1281381365411953e+01 -1 0 0
1676 444 1 4.1499999999999998e-01 3.5088695013217572e+00 1.1185955289765099e+00 1.8347938899703088e+01 0 1 0
367 444 2 -8.2999999999999996e-01 2.7293071534056899e+00 2.4070499291248195e+00 2.2937527229672696e+01 0 1 0
368 444 1 4.1499999999999998e-01 3.0105423556836772e+00 1.8194504866681571e+00 2.2236195578994550e+01 0 1 0
731 444 1 4.1499999999999998e-01 1.5595465371984261e+00 1.9120562746135150e+00 1.9162451506266223e+01 -3 3 0
732 444 1 4.1499999999999998e-01 8.1188538697170831e-01 6.0053117686994739e-01 1.9049314779858268e+01 -3 3 0
730 444 2 -8.2999999999999996e-01 1.6776340004392294e+00 9.6484223089287824e-01 1.9233674887585668e+01 -3 3 0
696 444 1 4.1499999999999998e-01 2.0410177406746586e+00 4.1247061823045899e+00 1.8948219822771065e+01 -3 -3 0
1925 444 1 4.1499999999999998e-01 3.0876281059162367e+00 5.5614712518458296e+00 1.8124526748541257e+01 -3 -1 0
1571 444 1 4.1499999999999998e-01 2.7746153846559634e+00 6.6765430859360120e-01 2.0721782457851752e+01 -7 0 0
1570 444 2 -8.2999999999999996e-01 3.3557998442012784e+00 2.9382069905153518e-01 2.1384130487833463e+01 -7 0 0
2018 444 1 4.1499999999999998e-01 4.4261995188590832e+00 2.5372695315836151e+00 2.3876548958169661e+01 2 2 0
695 444 1 4.1499999999999998e-01 8.7118724451188145e-01 3.8809408736595592e+00 1.8018719407230922e+01 -3 -3 0
1785 444 1 4.1499999999999998e-01 3.0547076181869208e+00 7.3651132658482101e+00 2.0027744779039352e+01 0 1 0
2019 444 1 4.1499999999999998e-01 5.0998322853146405e+00 3.8886675660310299e+00 2.3985348707703938e+01 2 2 0
1701 444 1 4.1499999999999998e-01 5.2680352969322914e+00 4.3652690211504259e+00 1.7301714269003181e+01 5 0 0
1271 444 1 4.1499999999999998e-01 6.9214192395242979e-01 5.1750325984931997e+00 2.1873485973035528e+01 3 3 0
2017 444 2 -8.2999999999999996e-01 5.1864094407644288e+00 2.9755090906969750e+00 2.4258986938122760e+01 2 2 0
694 444 2 -8.2999999999999996e-01 1.3089070010092041e+00 3.5278456643510157e+00 1.8793288520595063e+01 -3 -3 0
1699 444 2 -8.2999999999999996e-01 5.3481219556513633e+00 3.8081724618512638e+00 1.8075963266544743e+01 5 0 0
54 444 1 4.1499999999999998e-01 1.2588441479455665e-02 1.7559825915936160e+00 2.4072955357174258e+01 4 1 0
206 444 1 4.1499999999999998e-01 4.8897356607783971e-01 7.8903282365319267e+00 1.6922274131556939e+01 2 1 0
2376 444 1 4.1499999999999998e-01 1.9907290015973862e+00 1.2492961386719457e+00 2.4551853219527423e+01 -2 4 0
69 444 1 4.1499999999999998e-01 5.1565340017682972e+00 1.1172862271475508e+00 2.6247494767123040e+01 -3 2 0
1220 444 1 4.1499999999999998e-01 7.3420294761373983e-01 3.0975927628032962e+00 2.8271516656749874e+01 -2 -2 0
1954 444 2 -8.2999999999999996e-01 2.6905497262039462e+00 7.7893779080074781e+00 2.5032159328026573e+01 3 1 0
2374 444 2 -8.2999999999999996e-01 2.0572492741557764e+00 4.1777749733259606e-01 2.5021303579406663e+01 -2 4 0
1960 444 2 -8.2999999999999996e-01 5.3402764354459835e+00 6.7044959729214098e+00 3.1280604386470216e+01 -3 3 0
2375 444 1 4.1499999999999998e-01 2.8955529086053047e+00 4.6789361654645578e-01 2.5480615271640541e+01 -2 4 0
1219 444 2 -8.2999999999999996e-01 9.2556733159684390e-01 3.7519967802499967e+00 2.8943355757702044e+01 -2 -2 0
19 444 2 -8.2999999999999996e-01 3.3296904007605987e-01 2.7616196078455881e+00 2.6617230180488590e+01 2 2 0
819 444 1 4.1499999999999998e-01 4.5246459278832774e+00 7.3973335990995919e+00 2.4771772745541682e+01 3 -2 0
2350 444 2 -8.2999999999999996e-01 2.8986936699276149e+00 6.2800999726396061e+00 3.0328579389977214e+01 1 2 0
621 444 1 4.1499999999999998e-01 1.6453327522158725e+00 8.1651212447743382e-01 3.1382193554082022e+01 0 3 0
2512 444 2 -8.2999999999999996e-01 7.7180931509420958e-01 2.2967314499048443e+00 3.1350064981522124e+01 3 2 0
1257 444 1 4.1499999999999998e-01 1.5173229782829467e+00 6.9311083232194939e+00 2.7394110243412026e+01 0 4 0
1221 444 1 4.1499999999999998e-01 1.4601073180450619e+00 4.4072105571814877e+00 2.8494808658467054e+01 -2 -2 0
1255 444 2 -8.2999999999999996e-01 1.9705163985654708e+00 6.2735286361483791e+00 2.7921781614871982e+01 0 4 0
68 444 1 4.1499999999999998e-01 3.7482715510199385e+00 1.6674716243609158e+00 2.6324877616620331e+01 -3 2 0
1256 444 1 4.1499999999999998e-01 2.7824335439454435e+00 6.1011680461706845e+00 2.7445005189621408e+01 0 4 0
1962 444 1 4.1499999999999998e-01 4.4611963683312545e+00 6.4909648465878256e+00 3.0967784601622416e+01 -3 3 0
2589 444 1 4.1499999999999998e-01 3.2361272855189598e+00 2.9836787095178021e+00 2.9361733063948041e+01 0 2 0
2587 444 2 -8.2999999999999996e-01 3.6219893736854187e+00 3.8216594094207839e+00 2.9616940839356268e+01 0 2 0
2351 444 1 4.1499999999999998e-01 2.3557478263212577e+00 6.4950386881965487e+00 2.9570131590034926e+01 1 2 0
2272 444 2 -8.2999999999999996e-01 3.1857297768002426e+00 3.1148936806260101e+00 2.6789346955947515e+01 -2 3 0
2273 444 1 4.1499999999999998e-01 2.2790057763718234e+00 3.1258251354478910e+00 2.6482810837376743e+01 -2 3 0
2990 444 1 4.1499999999999998e-01 4.7081215808610439e+00 6.2396647107882375e+00 2.6166620326377739e+01 0 6 0
67 444 2 -8.2999999999999996e-01 4.2376375923981371e+00 8.5728575277693364e-01 2.6182218362392806e+01 -3 2 0
2274 444 1 4.1499999999999998e-01 3.4586022493563271e+00 4.0320335934308806e+00 2.6764296710732321e+01 -2 3 0
2513 444 1 4.1499999999999998e-01 9.3074714762844379e-01 2.5718137141654300e+00 3.0447124750065175e+01 3 2 0
2991 444 1 4.1499999999999998e-01 5.1400747976355605e+00 5.3285919432576891e+00 2.7295893702633617e+01 0 6 0
2588 444 1 4.1499999999999998e-01 4.4663059984676279e+00 3.8441772947539588e+00 2.9166545968832363e+01 0 2 0
2989 444 2 -8.2999999999999996e-01 4.3670170469169278e+00 5.6227220541270837e+00 2.6814124769114475e+01 0 6 0
2352 444 1 4.1499999999999998e-01 3.1970456799296927e+00 5.3855327503839581e+00 3.0164361807161409e+01 1 2 0
1961 444 1 4.1499999999999998e-01 5.2760387061648730e+00 6.6480690612713165e+00 3.2233978166486274e+01 -3 3 0
1956 444 1 4.1499999999999998e-01 1.8080852731895294e+00 7.8925589938527807e+00 2.5388308101845524e+01 3 1 0
619 444 2 -8.2999999999999996e-01 2.3123072813726928e+00 1.3082809939409906e-01 3.1417057517135262e+01 0 3 0
1011 444 1 4.1499999999999998e-01 3.4153325181103800e-01 5.4099249648577157e+00 3.0295645546195033e+01 0 -1 0
817 444 2 -8.2999999999999996e-01 5.4217707607670578e+00 7.0637822123085847e+00 2.4783703879414691e+01 3 -2 0
2918 444 1 4.1499999999999998e-01 4.8957524969444286e+00 1.2035868765851523e-01 2.9419843221713549e+01 0 2 0
3084 444 4 0.0000000000000000e+00 3.4729999999999999e+00 9.7467000000000006e+00 0.0000000000000000e+00 0 0 0
3085 444 4 -7.4069999999999997e-02 3.4814900000000000e+00 9.7578999999999994e+00 3.5969899999999999e+00 0 0 0
3089 444 4 0.0000000000000000e+00 1.6560500000000000e+00 9.7467000000000006e+00 1.8169999999999999e+00 0 0 0
3095 444 4 0.0000000000000000e+00 5.2898399999999999e+00 9.7467000000000006e+00 1.8169999999999999e+00 0 0 0
3107 444 4 -7.4069999999999997e-02 1.6669200000000000e+00 1.1569269999999999e+01 3.5964100000000001e+00 0 0 0
3108 444 4 0.0000000000000000e+00 3.4729999999999999e+00 1.1563549999999999e+01 1.8169999999999999e+00 0 0 0
3109 444 4 0.0000000000000000e+00 1.6560500000000000e+00 1.3380500000000000e+01 1.8169999999999999e+00 0 0 0
3112 444 4 0.0000000000000000e+00 5.2898399999999999e+00 1.1563549999999999e+01 0.0000000000000000e+00 0 0 0
3113 444 4 -7.4069999999999997e-02 5.2888299999999999e+00 1.1569910000000000e+01 3.5924800000000001e+00 0 0 0
3115 444 4 0.0000000000000000e+00 5.2898399999999999e+00 1.3380500000000000e+01 1.8169999999999999e+00 0 0 0
3118 444 4 0.0000000000000000e+00 1.6560500000000000e+00 1.1563549999999999e+01 0.0000000000000000e+00 0 0 0
3124 444 4 0.0000000000000000e+00 1.6560500000000000e+00 1.5197450000000000e+01 0.0000000000000000e+00 0 0 0
3125 444 4 -7.4069999999999997e-02 1.6718000000000000e+00 1.5186809999999999e+01 3.5766100000000001e+00 0 0 0
3126 444 4 0.0000000000000000e+00 3.4729999999999999e+00 1.5197450000000000e+01 1.8169999999999999e+00 0 0 0
3132 444 4 -7.4069999999999997e-02 3.4846699999999999e+00 1.3369949999999999e+01 3.5945900000000002e+00 0 0 0
3133 444 4 0.0000000000000000e+00 3.4729999999999999e+00 1.3380500000000000e+01 0.0000000000000000e+00 0 0 0
3134 444 4 0.0000000000000000e+00 5.2898399999999999e+00 1.5197450000000000e+01 0.0000000000000000e+00 0 0 0
3159 444 4 -7.4069999999999997e-02 5.2920199999999999e+00 1.5204660000000001e+01 3.5874000000000001e+00 0 0 0
2226 444 1 4.1499999999999998e-01 2.9745438698327620e+00 1.3770321533505282e+01 6.0080102797412991e+00 5 -3 0
2225 444 1 4.1499999999999998e-01 3.4436096796015399e+00 1.5023276558010501e+01 6.7165130207042525e+00 5 -3 0
2224 444 2 -8.2999999999999996e-01 2.6718945552781821e+00 1.4472846183788709e+01 6.5834183486481770e+00 5 -3 0
339 444 1 4.1499999999999998e-01 3.9754620967052796e+00 1.0444105142719573e+01 6.7433020601131091e+00 0 1 0
2139 444 1 4.1499999999999998e-01 1.5329152305458069e+00 9.7596594978404223e+00 6.3705040212128843e+00 -2 3 0
2138 444 1 4.1499999999999998e-01 1.4970399889005419e+00 1.1265684043672209e+01 6.5204980207433163e+00 -2 3 0
2137 444 2 -8.2999999999999996e-01 1.9718157083184082e+00 1.0487109103031559e+01 6.8114300739094711e+00 -2 3 0
1965 444 1 4.1499999999999998e-01 1.1432600115391032e+00 1.4612123477928089e+01 6.6936256952855970e+00 5 2 0
337 444 2 -8.2999999999999996e-01 4.9022992118491580e+00 1.0263680183100082e+01 6.9003127176986760e+00 0 1 0
1963 444 2 -8.2999999999999996e-01 2.2484475114722596e-01 1.4820360594281290e+01 6.8650392443489476e+00 5 2 0
338 444 1 4.1499999999999998e-01 5.2930303871110995e+00 1.0237580246244310e+01 6.0268827300392713e+00 0 1 0
1145 444 1 4.1499999999999998e-01 5.4198984973394824e+00 8.2027803991660946e+00 7.0575271341294386e+00 1 -1 0
1358 444 1 4.1499999999999998e-01 1.6271279413261648e+00 1.0237678685131856e+01 8.6074089583215390e+00 6 0 0
1466 444 1 4.1499999999999998e-01 4.9186642096809265e+00 1.4179353277769863e+01 1.0239974388408582e+01 -2 -4 0
161 444 1 4.1499999999999998e-01 2.4523595916432939e+00 1.0920967445025839e+01 1.1916681042929804e+01 1 1 0
1230 444 1 4.1499999999999998e-01 6.0900857526551355e-01 1.3481846922169074e+01 1.4954745429945497e+01 -4 0 0
1869 444 1 4.1499999999999998e-01 5.2632725108311647e+00 1.2315957510262283e+01 9.8430460866228273e+00 0 1 0
1868 444 1 4.1499999999999998e-01 5.2184946314450578e+00 1.2930744585680143e+01 8.4603212863303323e+00 0 1 0
1867 444 2 -8.2999999999999996e-01 4.6668274106756211e+00 1.2722341647964091e+01 9.2142871757923359e+00 0 1 0
1228 444 2 -8.2999999999999996e-01 1.5578198484300307e+00 1.3538234061437580e+01 1.4841562212593253e+01 -4 0 0
160 444 2 -8.2999999999999996e-01 1.9644366680604279e+00 1.0657046356702143e+01 1.2696750835173622e+01 1 1 0
162 444 1 4.1499999999999998e-01 2.5912424373783618e+00 1.0148447720780670e+01 1.3211215706014059e+01 1 1 0
1465 444 2 -8.2999999999999996e-01 4.6848160459306705e+00 1.4964992735170652e+01 1.0734259259733996e+01 -2 -4 0
1229 444 1 4.1499999999999998e-01 1.7304858323690200e+00 1.3068693336779535e+01 1.4025504650254684e+01 -4 0 0
2630 444 1 4.1499999999999998e-01 3.5450285410581044e+00 1.5749690878816056e+01 1.1917528107629860e+01 -1 2 0
1357 444 2 -8.2999999999999996e-01 1.6589076945029697e+00 9.9836789126937866e+00 9.5297467973531500e+00 6 0 0
1359 444 1 4.1499999999999998e-01 2.1722640880765995e+00 9.1758310483314638e+00 9.5386455214101300e+00 6 0 0
2174 444 1 4.1499999999999998e-01 4.8004549622202948e+00 1.0496571082692942e+01 1.5101723778908212e+01 -4 1 0
2494 444 2 -8.2999999999999996e-01 1.6889533867020780e-02 8.2449507394918040e+00 1.3161076743936057e+01 0 3 0
1493 444 1 4.1499999999999998e-01 2.0818368466204631e+00 1.3424932242004312e+01 8.2830748955515574e+00 2 1 0
1492 444 2 -8.2999999999999996e-01 2.1566616967433787e+00 1.3415840310782020e+01 9.2373025529430919e+00 2 1 0
1494 444 1 4.1499999999999998e-01 3.0444186204183463e+00 1.3099837015480519e+01 9.4054137241310620e+00 2 1 0
1730 444 1 4.1499999999999998e-01 4.2360068260249353e+00 1.4403071229144144e+01 1.3515031427165354e+01 4 2 0
1949 444 1 4.1499999999999998e-01 4.9558298806441172e+00 8.6475360083043640e+00 1.0661072520312505e+01 -3 -5 0
1467 444 1 4.1499999999999998e-01 4.8438567988104593e+00 1.5687135896775567e+01 1.0126437606791814e+01 -2 -4 0
1971 444 1 4.1499999999999998e-01 5.2094444671351958e+00 1.2442288767146962e+01 1.4119770099031170e+01 0 7 0
1729 444 2 -8.2999999999999996e-01 4.4140575711642667e+00 1.3579703713353510e+01 1.3060502794380948e+01 4 2 0
231 444 1 4.1499999999999998e-01 9.8247908163681674e-01 1.3852989406833332e+01 1.0568315418589771e+01 -1 -4 0
2173 444 2 -8.2999999999999996e-01 4.4429004544375088e+00 9.6815421374831097e+00 1.5454023913849015e+01 -4 1 0
1724 444 1 4.1499999999999998e-01 2.5964953841833327e+00 8.7100132119461300e+00 1.5910190087932003e+01 2 3 0
229 444 2 -8.2999999999999996e-01 3.1630994951290836e-01 1.4267900957167571e+01 1.1116310825236818e+01 -1 -4 0
2608 444 2 -8.2999999999999996e-01 3.6305826318982373e+00 1.6253870685137283e+01 1.5323682337856100e+01 -1 -3 0
2610 444 1 4.1499999999999998e-01 3.5720127314018550e+00 1.5299042243852034e+01 1.5356916981274914e+01 -1 -3 0
1731 444 1 4.1499999999999998e-01 4.3413064351260440e+00 1.3797904129145087e+01 1.2131347961295607e+01 4 2 0
1079 444 1 4.1499999999999998e-01 1.3393175291599004e+00 1.5851268328282089e+01 8.9849539117539017e+00 -2 -1 0
1948 444 2 -8.2999999999999996e-01 4.9330607191802995e+00 8.2924565435896529e+00 1.1549684875081415e+01 -3 -5 0
1331 444 1 4.1499999999999998e-01 5.3593905084888425e+00 9.9503285433412909e+00 8.7317572069119400e+00 -1 -1 0
2629 444 2 -8.2999999999999996e-01 3.3074070406069578e+00 1.6296697832898751e+01 1.2666227832211044e+01 -1 2 0
2495 444 1 4.1499999999999998e-01 6.4319004846013095e-01 8.4256177715904528e+00 1.3862032612812964e+01 0 3 0
2214 444 1 4.1499999999999998e-01 1.6577295187474208e+00 1.3347225359280692e+01 1.7940459861368623e+01 2 -3 0
2212 444 2 -8.2999999999999996e-01 2.2715972962837951e+00 1.2732568844238317e+01 1.7538470331405250e+01 2 -3 0
2213 444 1 4.1499999999999998e-01 2.0863608327776415e+00 1.2786989147253980e+01 1.6600942869040178e+01 2 -3 0
1766 444 1 4.1499999999999998e-01 1.1325987467887519e+00 1.5331184879535984e+01 1.8823260963181792e+01 0 3 0
1767 444 1 4.1499999999999998e-01 2.4172562436634409e-01 1.5250431329845545e+01 1.7601901427036719e+01 0 3 0
629 444 1 4.1499999999999998e-01 3.3868578466512989e+00 1.3860393890079230e+01 1.8509855972570584e+01 -2 0 0
1501 444 2 -8.2999999999999996e-01 1.4935121101612805e+00 1.3469900514935498e+01 2.3023665334655679e+01 5 -1 0
1438 444 2 -8.2999999999999996e-01 4.1004201618065741e+00 8.7019891212898752e+00 2.2690915289282401e+01 -2 2 0
712 444 2 -8.2999999999999996e-01 3.5024796021953528e+00 1.1791921943469504e+01 2.1681006385153417e+01 0 0 0
2175 444 1 4.1499999999999998e-01 4.8441889269409417e+00 9.5975268171173624e+00 1.6318975713299945e+01 -4 1 0
1765 444 2 -8.2999999999999996e-01 5.9695266061792407e-01 1.4721232367863109e+01 1.8316040090374049e+01 0 3 0
1302 444 1 4.1499999999999998e-01 3.1052424475089260e+00 1.1372442748897722e+01 1.8497249117223614e+01 6 -3 0
1721 444 1 4.1499999999999998e-01 1.5461475023022426e+00 1.0880137923910315e+01 1.9028813790706781e+01 0 -1 0
1720 444 2 -8.2999999999999996e-01 7.4780464281292092e-01 1.0386774559839946e+01 1.8840470080448135e+01 0 -1 0
1301 444 1 4.1499999999999998e-01 4.3701351939962212e+00 1.0545112251938502e+01 1.8410841911639324e+01 6 -3 0
1300 444 2 -8.2999999999999996e-01 3.5539960041665291e+00 1.0630984309171946e+01 1.8903564632586264e+01 6 -3 0
233 444 1 4.1499999999999998e-01 1.8764289787793738e+00 1.5159482084120095e+01 2.2817501332941628e+01 3 -3 0
713 444 1 4.1499999999999998e-01 3.8233995155891400e+00 1.1661625432562928e+01 2.0788669424374145e+01 0 0 0
714 444 1 4.1499999999999998e-01 2.7860875507758078e+00 1.1163718051669457e+01 2.1772522938339829e+01 0 0 0
1440 444 1 4.1499999999999998e-01 3.3409341706053453e+00 8.4988900665601506e+00 2.3236959297167175e+01 -2 2 0
1503 444 1 4.1499999999999998e-01 7.8657366040643306e-01 1.3040771107509293e+01 2.2541670814229811e+01 5 -1 0
628 444 2 -8.2999999999999996e-01 3.6896540257991459e+00 1.4764181697468905e+01 1.8597684933820140e+01 -2 0 0
44 444 1 4.1499999999999998e-01 6.4246856938505736e-01 9.9193209911218663e+00 2.2586928244370519e+01 -1 -1 0
1502 444 1 4.1499999999999998e-01 1.9016021963420802e+00 1.2766238575247039e+01 2.3528199451943831e+01 5 -1 0
43 444 2 -8.2999999999999996e-01 1.2817140928783848e+00 1.0260897550550604e+01 2.1961690174536564e+01 -1 -1 0
630 444 1 4.1499999999999998e-01 4.5682397112661972e+00 1.4687834595032363e+01 1.8969827653819056e+01 -2 0 0
1933 444 2 -8.2999999999999996e-01 5.2789860930468331e+00 1.3622883275769274e+01 2.3590787515176643e+01 0 1 0
1934 444 1 4.1499999999999998e-01 5.3783479163937571e+00 1.4444705743288017e+01 2.3110196542525355e+01 0 1 0
1935 444 1 4.1499999999999998e-01 4.5383918262822931e+00 1.3186595543709641e+01 2.3169592172854525e+01 0 1 0
45 444 1 4.1499999999999998e-01 1.0009532548979077e+00 9.9110487727377645e+00 2.1116106861814629e+01 -1 -1 0
1784 444 1 4.1499999999999998e-01 2.6049292787361096e+00 8.7443587647805092e+00 1.9594990140652509e+01 0 1 0
1439 444 1 4.1499999999999998e-01 3.7497974082331154e+00 8.7535844342563127e+00 2.1801739134993113e+01 -2 2 0
232 444 2 -8.2999999999999996e-01 1.9199242988496210e+00 1.6114971133397024e+01 2.2854659089640585e+01 3 -3 0
1783 444 2 -8.2999999999999996e-01 2.7160985495515049e+00 8.1927095365241289e+00 2.0369300629254660e+01 0 1 0
1722 444 1 4.1499999999999998e-01 6.6047870916865314e-02 1.1054127171280394e+01 1.8762490322430214e+01 0 -1 0
207 444 1 4.1499999999999998e-01 2.7055700489197482e-01 8.8501594828068910e+00 1.8072453844441718e+01 2 1 0
1773 444 1 4.1499999999999998e-01 1.6718990043240209e+00 1.6048242393760976e+01 2.0972753562876100e+01 3 4 0
234 444 1 4.1499999999999998e-01 2.5558114312879141e+00 1.6299560245090021e+01 2.3545894404100320e+01 3 -3 0
1657 444 2 -8.2999999999999996e-01 5.1546889780777647e+00 1.6350573215985722e+01 2.3158975078220941e+01 3 0 0
1027 444 2 -8.2999999999999996e-01 4.3643980064477326e+00 1.3345059612650756e+01 3.1787613416374541e+01 -2 -4 0
1004 444 1 4.1499999999999998e-01 8.7851481216351235e-01 1.0422240274319753e+01 3.1796850406605568e+01 -1 -6 0
728 444 1 4.1499999999999998e-01 3.8066620667490163e+00 1.0720586750539029e+01 2.7551266907839157e+01 0 1 0
1955 444 1 4.1499999999999998e-01 3.1900199970968672e+00 8.5101253819365947e+00 2.5415935721286758e+01 3 1 0
2527 444 2 -8.2999999999999996e-01 9.0836177543296004e-01 1.4663069327681908e+01 2.6599686682698632e+01 -1 1 0
2528 444 1 4.1499999999999998e-01 8.9526141035694051e-01 1.4209240821477339e+01 2.5757012468046884e+01 -1 1 0
740 444 1 4.1499999999999998e-01 4.1684219492966044e+00 1.5622653522854247e+01 3.2246571184021782e+01 -1 -7 0
1003 444 2 -8.2999999999999996e-01 1.6142116724558770e+00 1.0190054379862051e+01 3.2363483048205296e+01 -1 -6 0
585 444 1 4.1499999999999998e-01 3.5789997128253201e+00 1.3858312742424063e+01 2.7934406995143995e+01 1 3 0
830 444 1 4.1499999999999998e-01 5.2748239096087453e+00 9.4192213178537880e+00 3.0129626246205977e+01 -2 -1 0