LAMMPS data file via write_data, version 11 Aug 2017, timestep = 1000000

3579 atoms
11 atom types
2024 bonds
5 bond types
1018 angles
5 angle types
12 dihedrals
4 dihedral types
9 impropers
1 improper types

0.0000000000000000e+00 3.2704500000000003e+01 xlo xhi
0.0000000000000000e+00 3.2704500000000003e+01 ylo yhi
0.0000000000000000e+00 6.5000000000000000e+01 zlo zhi

Masses

1 1.0079
2 15.9994
3 39.0983
4 63.546
5 12.011
6 1.0079
7 12.011
8 15.9994
9 15.9994
10 15.9994
11 1.0079

Bond Coeffs # harmonic

1 450 0.9572
2 570 1.229
3 450 1.364
4 570 1.229
5 553 0.945

Angle Coeffs # harmonic

1 100 123.32
2 85 124
3 55 104.52
4 35 113
5 100 123.32

Dihedral Coeffs # charmm

1 0.922 1 180 0
2 3.741 2 0 0
3 0.922 1 0 0
4 3.741 2 180 0

Improper Coeffs # umbrella

1 21 0

Atoms # full

3049 444 4 -7.4069999999999997e-02 1.6683500000000000e+00 6.6761000000000004e-01 3.5975600000000001e+00 0 0 0
3050 444 4 0.0000000000000000e+00 3.4729999999999999e+00 6.6205000000000003e-01 1.8169999999999999e+00 0 0 0
3051 444 4 0.0000000000000000e+00 1.6560500000000000e+00 2.4790000000000001e+00 1.8169999999999999e+00 0 0 0
3054 444 4 0.0000000000000000e+00 5.2898399999999999e+00 6.6205000000000003e-01 0.0000000000000000e+00 0 0 0
3055 444 4 -7.4069999999999997e-02 5.2833899999999998e+00 6.6559000000000001e-01 3.5945999999999998e+00 0 0 0
3057 444 4 0.0000000000000000e+00 5.2898399999999999e+00 2.4790000000000001e+00 1.8169999999999999e+00 0 0 0
3060 444 4 0.0000000000000000e+00 1.6560500000000000e+00 6.6205000000000003e-01 0.0000000000000000e+00 0 0 0
3064 444 4 0.0000000000000000e+00 3.4729999999999999e+00 6.1128000000000000e+00 0.0000000000000000e+00 0 0 0
3065 444 4 -7.4069999999999997e-02 3.4672900000000002e+00 6.1129199999999999e+00 3.5858599999999998e+00 0 0 0
3066 444 4 0.0000000000000000e+00 1.6560500000000000e+00 4.2959500000000004e+00 0.0000000000000000e+00 0 0 0
3067 444 4 -7.4069999999999997e-02 1.6641400000000000e+00 4.2780300000000002e+00 3.5826600000000002e+00 0 0 0
3068 444 4 0.0000000000000000e+00 3.4729999999999999e+00 4.2959500000000004e+00 1.8169999999999999e+00 0 0 0
3069 444 4 0.0000000000000000e+00 1.6560500000000000e+00 6.1128000000000000e+00 1.8169999999999999e+00 0 0 0
3074 444 4 -7.4069999999999997e-02 3.4767299999999999e+00 2.4698099999999998e+00 3.5941500000000000e+00 0 0 0
3075 444 4 0.0000000000000000e+00 3.4729999999999999e+00 2.4790000000000001e+00 0.0000000000000000e+00 0 0 0
3076 444 4 0.0000000000000000e+00 5.2898399999999999e+00 4.2959500000000004e+00 0.0000000000000000e+00 0 0 0
3077 444 4 0.0000000000000000e+00 5.2898399999999999e+00 6.1128000000000000e+00 1.8169999999999999e+00 0 0 0
3086 444 4 0.0000000000000000e+00 1.6560500000000000e+00 7.9297500000000003e+00 0.0000000000000000e+00 0 0 0
3087 444 4 -7.4069999999999997e-02 1.6760299999999999e+00 7.9546599999999996e+00 3.5885199999999999e+00 0 0 0
3088 444 4 0.0000000000000000e+00 3.4729999999999999e+00 7.9297500000000003e+00 1.8169999999999999e+00 0 0 0
3092 444 4 0.0000000000000000e+00 5.2898399999999999e+00 7.9297500000000003e+00 0.0000000000000000e+00 0 0 0
3093 444 4 -7.4069999999999997e-02 5.2926599999999997e+00 7.9163899999999998e+00 3.5764700000000000e+00 0 0 0
3101 444 4 -7.4069999999999997e-02 5.2738800000000001e+00 4.2944500000000003e+00 3.5717699999999999e+00 0 0 0
2148 444 1 4.1499999999999998e-01 2.0475961568768306e+00 5.9817219796291070e+00 6.3248652690257101e+00 -1 2 0
1729 444 2 -8.2999999999999996e-01 5.3498871876992480e+00 6.1356258516800013e+00 6.8948395773395132e+00 -2 -1 0
1899 444 1 4.1499999999999998e-01 4.5722986634915923e+00 3.1309499860078849e+00 6.6655244277966350e+00 0 -4 0
2591 444 1 4.1499999999999998e-01 3.5516273118834092e+00 7.0186209411222515e+00 6.6737104456852858e+00 5 -2 0
2590 444 2 -8.2999999999999996e-01 2.9951941588339199e+00 7.7436856473061058e+00 6.9581313698752130e+00 5 -2 0
2866 444 2 -8.2999999999999996e-01 2.8888486957400801e+00 2.5384118369539981e+00 6.5473529944352320e+00 -3 -1 0
2146 444 2 -8.2999999999999996e-01 1.6948310425134203e+00 5.1398962718754646e+00 6.6131686091160473e+00 -1 2 0
2868 444 1 4.1499999999999998e-01 2.6421374789412693e+00 3.4627447708903150e+00 6.5161419051887659e+00 -3 -1 0
2867 444 1 4.1499999999999998e-01 2.0955073064229115e+00 2.0694104448384900e+00 6.2887432141988500e+00 -3 -1 0
1124 444 1 4.1499999999999998e-01 3.9705462385061319e+00 1.1449454642459389e+00 6.5210936210206851e+00 3 6 0
1123 444 2 -8.2999999999999996e-01 4.2926541372098317e+00 3.1133868340072662e-01 6.8639903372770172e+00 3 6 0
2147 444 1 4.1499999999999998e-01 7.6263459206074180e-01 5.1848236141754107e+00 6.4005104312832835e+00 -1 2 0
4 444 3 1.0000000000000000e+00 5.3156682457825255e+00 1.6451907034303359e+00 1.1106838745504819e+01 -2 -1 0
2533 444 2 -8.2999999999999996e-01 1.6414673963662012e+00 2.8246288984611129e-01 9.4495352626687374e+00 1 1 0
2622 444 1 4.1499999999999998e-01 2.8809338024171174e+00 1.2940105688791474e+00 9.3412051887510223e+00 1 3 0
989 444 1 4.1499999999999998e-01 2.4973898643437376e+00 4.7371349729016874e+00 8.1420914119682042e+00 0 -2 0
988 444 2 -8.2999999999999996e-01 2.8960069475159855e+00 4.6125079816548906e+00 9.0033721128703839e+00 0 -2 0
990 444 1 4.1499999999999998e-01 3.2886992319118931e+00 3.7405407567494571e+00 8.9621675045638138e+00 0 -2 0
493 444 2 -8.2999999999999996e-01 1.9704345826276597e+00 2.6504928629582674e+00 1.1980803960121747e+01 -1 3 0
9 444 3 1.0000000000000000e+00 5.2182886432962707e+00 5.6063465210265804e+00 9.9716748603066367e+00 0 1 0
3044 444 7 1.0800000000000001e+00 5.1444320993026356e+00 4.0697167108721350e+00 1.3166277310888010e+01 0 1 0
3047 444 10 -7.8000000000000003e-01 5.0385808255517111e+00 5.0114926392901955e+00 1.4125227591194458e+01 0 1 0
946 444 2 -8.2999999999999996e-01 1.9574797381692419e+00 6.8567096508697967e+00 1.1676206118655228e+01 0 -2 0
495 444 1 4.1499999999999998e-01 2.8628608233085888e+00 2.7144901191471016e+00 1.2320968091892151e+01 -1 3 0
2733 444 1 4.1499999999999998e-01 3.8611333667409431e+00 2.4528183331461824e+00 1.4575876015974922e+01 2 0 0
1963 444 2 -8.2999999999999996e-01 3.6824056718356384e+00 7.6388193416461680e+00 9.8147181557843357e+00 1 4 0
947 444 1 4.1499999999999998e-01 2.6317005218417440e+00 7.0843208439474834e+00 1.1036009725734440e+01 0 -2 0
2731 444 2 -8.2999999999999996e-01 3.8311237849169850e+00 2.0816001343765214e+00 1.5457651725161579e+01 2 0 0
3032 444 3 1.0000000000000000e+00 6.8463221692820431e-01 4.8971782342391483e+00 1.0569796623058624e+01 5 1 0
2743 444 2 -8.2999999999999996e-01 2.3526667530642147e+00 5.8682870543296932e+00 1.4579477334303711e+01 -2 -3 0
3045 444 8 -8.5999999999999999e-01 4.3259605533720293e+00 3.1445744412768071e+00 1.2995336358845762e+01 0 1 0
2744 444 1 4.1499999999999998e-01 1.7637242410849046e+00 6.4925673678439093e+00 1.4155622659763663e+01 -2 -3 0
494 444 1 4.1499999999999998e-01 1.4873002079072521e+00 2.1816139421042675e+00 1.2661219742860082e+01 -1 3 0
948 444 1 4.1499999999999998e-01 1.4409868938938164e+00 7.6564735233361523e+00 1.1775426840556582e+01 0 -2 0
2745 444 1 4.1499999999999998e-01 3.1597074678975532e+00 5.9135753286573234e+00 1.4066772171151021e+01 -2 -3 0
2620 444 2 -8.2999999999999996e-01 3.6363878153917075e+00 1.7960876904263201e+00 9.0355260841244913e+00 1 3 0
2811 444 1 4.1499999999999998e-01 8.9849881231949869e-01 5.0732945465392665e-01 1.4229897749594286e+01 -1 2 0
2732 444 1 4.1499999999999998e-01 3.6922921747910729e+00 1.1447219779651689e+00 1.5319026114208187e+01 2 0 0
161 444 1 4.1499999999999998e-01 5.8845172624375630e-01 5.4078707206634666e+00 1.6177919715774966e+01 7 3 0
2918 444 1 4.1499999999999998e-01 6.3743115820563012e-01 1.9925608075772303e+00 8.8322155635074999e+00 2 1 0
2621 444 1 4.1499999999999998e-01 3.8486006509754604e+00 1.4154441891636080e+00 8.1832889498985200e+00 1 3 0
2809 444 2 -8.2999999999999996e-01 3.9142174684425807e-01 1.2891887396900257e+00 1.4011263400843939e+01 -1 2 0
674 444 1 4.1499999999999998e-01 2.9282574239660906e+00 4.7384180421591147e+00 1.5925960636031649e+01 -1 -2 0
3048 444 11 3.5999999999999999e-01 5.3002557390673593e+00 4.6001462361401479e+00 1.4956360297110514e+01 0 1 0
2535 444 1 4.1499999999999998e-01 1.2334871353904195e+00 3.3731490849768292e-01 1.0313697259357298e+01 1 1 0
1965 444 1 4.1499999999999998e-01 3.2585588827452501e+00 7.7154077927513534e+00 8.9598962089259384e+00 1 4 0
1930 444 2 -8.2999999999999996e-01 3.8826071691825526e-01 8.0462607223091496e+00 1.6734163497237173e+01 -2 3 0
503 444 1 4.1499999999999998e-01 4.7456029479303730e-01 4.6894035007466304e+00 2.2441024699584638e+01 -4 -2 0
2391 444 1 4.1499999999999998e-01 4.4645826882878055e+00 6.7195251913505372e+00 1.9291016279955883e+01 -1 2 0
3003 444 1 4.1499999999999998e-01 3.6410877720135701e+00 7.5677618905351309e+00 2.2474389645098679e+01 5 -4 0
502 444 2 -8.2999999999999996e-01 1.1171304063824705e+00 4.6308358786003554e+00 2.3148064922421906e+01 -4 -2 0
504 444 1 4.1499999999999998e-01 1.9566268143957350e+00 4.5228094921062034e+00 2.2701064655315104e+01 -4 -2 0
1875 444 1 4.1499999999999998e-01 4.9209448193405736e+00 9.5304916175979276e-02 2.0622547426602999e+01 3 4 0
2786 444 1 4.1499999999999998e-01 2.7676014231101740e+00 2.0399297849044178e+00 2.3476019754205574e+01 2 -3 0
563 444 1 4.1499999999999998e-01 3.1917332494246069e+00 3.9378886792560146e+00 2.0708830746583160e+01 -4 1 0
223 444 2 -8.2999999999999996e-01 2.2917990046176229e+00 1.5648884977011934e+00 1.9407722729902094e+01 -9 -1 0
224 444 1 4.1499999999999998e-01 2.3526461386310515e+00 1.9297743724908019e+00 1.8524893143291003e+01 -9 -1 0
225 444 1 4.1499999999999998e-01 3.1320443674176772e+00 1.1274327657559080e+00 1.9545031517232715e+01 -9 -1 0
2785 444 2 -8.2999999999999996e-01 3.0784013237780719e+00 1.6467614182276982e+00 2.4291528348518302e+01 2 -3 0
562 444 2 -8.2999999999999996e-01 2.9896844864048884e+00 4.5920423273700424e+00 2.1377778702799731e+01 -4 1 0
564 444 1 4.1499999999999998e-01 3.8393820709077229e+00 4.8197862235572639e+00 2.1755111564295056e+01 -4 1 0
1178 444 1 4.1499999999999998e-01 2.8313017375438272e+00 5.4342410438549118e+00 1.8005107091720262e+01 1 6 0
673 444 2 -8.2999999999999996e-01 3.1019200096136803e+00 4.2004574302852999e+00 1.6698405843396738e+01 -1 -2 0
675 444 1 4.1499999999999998e-01 3.3299292587115175e+00 3.3403813951579839e+00 1.6345542018941376e+01 -1 -2 0
1179 444 1 4.1499999999999998e-01 2.2073868604019258e+00 6.0607543475464496e+00 1.9233971290606942e+01 1 6 0
1177 444 2 -8.2999999999999996e-01 2.9418794021554087e+00 6.1532859363345045e+00 1.8627184165843410e+01 1 6 0
429 444 1 4.1499999999999998e-01 9.1694462114649256e-01 1.2992874800846022e+00 2.0569218734214168e+01 1 -2 0
932 444 1 4.1499999999999998e-01 3.4596282303147983e+00 7.5318643446499047e+00 1.7452048593788913e+01 1 -3 0
1873 444 2 -8.2999999999999996e-01 4.7094968260283112e+00 5.7650265577702964e-01 1.9822565546493944e+01 3 4 0
2070 444 1 4.1499999999999998e-01 5.5479498274609629e-01 7.6278289452727144e+00 2.3643116865299056e+01 -1 3 0
2389 444 2 -8.2999999999999996e-01 5.1181117286383424e+00 7.2557846276660154e+00 1.9739967845793796e+01 -1 2 0
1512 444 1 4.1499999999999998e-01 4.9890905535019581e+00 2.7080002835974053e+00 2.3780846941886523e+01 -4 1 0
2390 444 1 4.1499999999999998e-01 4.6455964573588782e+00 7.6431221800601330e+00 2.0476806244404841e+01 -1 2 0
427 444 2 -8.2999999999999996e-01 1.3170651187788696e-01 1.1927033697118425e+00 2.1106129246087971e+01 1 -2 0
1620 444 1 4.1499999999999998e-01 3.1081947604951452e+00 6.2694602255031375e+00 2.4154448626893227e+01 -1 2 0
1422 444 1 4.1499999999999998e-01 1.6490660398837313e+00 5.3402284490566760e+00 3.1182357758804859e+01 2 0 0
1131 444 1 4.1499999999999998e-01 5.3632003896853906e+00 6.9164475999731128e+00 2.7918107934792999e+01 -4 -1 0
2753 444 1 4.1499999999999998e-01 3.2395578756562831e+00 7.3868325009116615e+00 3.2489346383220010e+01 -5 -1 0
171 444 1 4.1499999999999998e-01 2.6001443751224249e+00 2.6948405445799017e+00 3.2199243532759972e+01 -4 -1 0
1693 444 2 -8.2999999999999996e-01 7.3955200571421839e-02 1.4921369801758366e+00 2.8367864099132781e+01 0 0 0
2754 444 1 4.1499999999999998e-01 2.5371267730721643e+00 7.5937610581521815e+00 3.1164330644245897e+01 -5 -1 0
604 444 2 -8.2999999999999996e-01 1.7927835206991312e+00 6.7426527291803335e+00 2.9419154070341992e+01 -2 -1 0
1421 444 1 4.1499999999999998e-01 2.1045191056260144e+00 4.0486806550560352e+00 3.0537096482648419e+01 2 0 0
2068 444 2 -8.2999999999999996e-01 3.6326446453990918e-01 7.4247300437681929e+00 2.4558704002926380e+01 -1 3 0
1420 444 2 -8.2999999999999996e-01 2.2604072068380430e+00 4.6123314586538822e+00 3.1294875625976665e+01 2 0 0
1619 444 1 4.1499999999999998e-01 2.0475511051883086e+00 6.9915140795551709e+00 2.4957921693894782e+01 -1 2 0
2365 444 2 -8.2999999999999996e-01 3.7348374390779253e+00 3.3830578492834895e-01 3.0582912102369267e+01 0 0 0
606 444 1 4.1499999999999998e-01 2.2479911996953619e+00 6.5700791721495158e+00 2.8594995749748705e+01 -2 -1 0
1323 444 1 4.1499999999999998e-01 3.9451440894093079e+00 4.5426856398895127e-01 2.4962552412344493e+01 -1 0 0
1172 444 1 4.1499999999999998e-01 3.4033830481743590e+00 5.3030499120078050e+00 3.2253630793180918e+01 2 2 0
1982 444 1 4.1499999999999998e-01 3.2854646594714003e+00 6.7282601557923813e+00 2.6504902749251247e+01 2 -3 0
1981 444 2 -8.2999999999999996e-01 3.6028454189430805e+00 6.6204973623801395e+00 2.7401501064730351e+01 2 -3 0
2787 444 1 4.1499999999999998e-01 2.4797817177171337e+00 1.9779334218172049e+00 2.4961015308309150e+01 2 -3 0
2752 444 2 -8.2999999999999996e-01 2.7472580504367929e+00 8.0359620728899692e+00 3.1986848315182705e+01 -5 -1 0
2281 444 2 -8.2999999999999996e-01 1.7061390794002917e+00 3.2169343872604648e+00 2.6164818212535870e+01 4 1 0
2283 444 1 4.1499999999999998e-01 1.1872395399512670e+00 3.9895209986955078e+00 2.5941020922555264e+01 4 1 0
1116 444 1 4.1499999999999998e-01 2.7614731215179926e+00 1.6484211551141650e+00 3.0107265018595051e+01 4 0 0
1115 444 1 4.1499999999999998e-01 1.8120003762612724e+00 1.9101663399787367e+00 2.8957531773438880e+01 4 0 0
1983 444 1 4.1499999999999998e-01 3.6950212274163272e+00 5.6740974893218850e+00 2.7511331949231952e+01 2 -3 0
1114 444 2 -8.2999999999999996e-01 2.4701428113352280e+00 2.3351712248306096e+00 2.9507487574382182e+01 4 0 0
34 444 2 -8.2999999999999996e-01 3.7808690787931836e+00 4.1649999736625416e+00 2.7864326963589523e+01 5 2 0
35 444 1 4.1499999999999998e-01 3.1675695913721955e+00 3.5237690989319579e+00 2.8223379382942319e+01 5 2 0
2282 444 1 4.1499999999999998e-01 2.4726763163849563e+00 3.5661383404311984e+00 2.6619471209987431e+01 4 1 0
1618 444 2 -8.2999999999999996e-01 2.9910924929015916e+00 6.8355730239681023e+00 2.4917361107894155e+01 -1 2 0
36 444 1 4.1499999999999998e-01 4.5814848492444353e+00 4.0432478732603627e+00 2.8374643367108039e+01 5 2 0
605 444 1 4.1499999999999998e-01 1.0003277292328412e+00 7.2137005400470056e+00 2.9161549139408297e+01 -2 -1 0
2366 444 1 4.1499999999999998e-01 4.4426993737446363e+00 5.3514919601873678e-01 3.1196439620970896e+01 0 0 0
3084 444 4 0.0000000000000000e+00 3.4729999999999999e+00 9.7467000000000006e+00 0.0000000000000000e+00 0 0 0
3085 444 4 -7.4069999999999997e-02 3.4824400000000000e+00 9.7586099999999991e+00 3.5977800000000002e+00 0 0 0
3089 444 4 0.0000000000000000e+00 1.6560500000000000e+00 9.7467000000000006e+00 1.8169999999999999e+00 0 0 0
3095 444 4 0.0000000000000000e+00 5.2898399999999999e+00 9.7467000000000006e+00 1.8169999999999999e+00 0 0 0
3108 444 4 -7.4069999999999997e-02 1.6683500000000000e+00 1.1569110000000000e+01 3.5975600000000001e+00 0 0 0
3109 444 4 0.0000000000000000e+00 3.4729999999999999e+00 1.1563549999999999e+01 1.8169999999999999e+00 0 0 0
3110 444 4 0.0000000000000000e+00 1.6560500000000000e+00 1.3380500000000000e+01 1.8169999999999999e+00 0 0 0
3113 444 4 0.0000000000000000e+00 5.2898399999999999e+00 1.1563549999999999e+01 0.0000000000000000e+00 0 0 0
3114 444 4 -7.4069999999999997e-02 5.2833899999999998e+00 1.1567090000000000e+01 3.5945999999999998e+00 0 0 0
3116 444 4 0.0000000000000000e+00 5.2898399999999999e+00 1.3380500000000000e+01 1.8169999999999999e+00 0 0 0
3119 444 4 0.0000000000000000e+00 1.6560500000000000e+00 1.1563549999999999e+01 0.0000000000000000e+00 0 0 0
3125 444 4 0.0000000000000000e+00 1.6560500000000000e+00 1.5197450000000000e+01 0.0000000000000000e+00 0 0 0
3126 444 4 -7.4069999999999997e-02 1.6641400000000000e+00 1.5179530000000000e+01 3.5826600000000002e+00 0 0 0
3127 444 4 0.0000000000000000e+00 3.4729999999999999e+00 1.5197450000000000e+01 1.8169999999999999e+00 0 0 0
3133 444 4 -7.4069999999999997e-02 3.4767299999999999e+00 1.3371309999999999e+01 3.5941500000000000e+00 0 0 0
3134 444 4 0.0000000000000000e+00 3.4729999999999999e+00 1.3380500000000000e+01 0.0000000000000000e+00 0 0 0
3135 444 4 0.0000000000000000e+00 5.2898399999999999e+00 1.5197450000000000e+01 0.0000000000000000e+00 0 0 0
3160 444 4 -7.4069999999999997e-02 5.2738800000000001e+00 1.5195950000000000e+01 3.5717699999999999e+00 0 0 0
2652 444 1 4.1499999999999998e-01 2.6406104849305225e+00 1.5057063827482461e+01 6.6073725963641428e+00 1 4 0
2650 444 2 -8.2999999999999996e-01 2.4681208163861736e+00 1.4347460551931375e+01 7.2261962499233245e+00 1 4 0
2494 444 2 -8.2999999999999996e-01 3.9768878751419652e+00 1.1877856779518440e+01 7.0589706695700141e+00 -3 2 0
2651 444 1 4.1499999999999998e-01 3.0584555107438973e+00 1.3644248160605116e+01 6.9555863764907073e+00 1 4 0
1749 444 1 4.1499999999999998e-01 4.5813318416427720e+00 1.0380472050827919e+01 7.3251058038533161e+00 5 1 0
1747 444 2 -8.2999999999999996e-01 4.9840614376653516e+00 9.5882307658572046e+00 7.6806258320281477e+00 5 1 0
714 444 1 4.1499999999999998e-01 5.4818030656746508e-01 1.0967420648858178e+01 6.1476638012708218e+00 -2 1 0
712 444 2 -8.2999999999999996e-01 1.2162216032223945e+00 1.1062836233138583e+01 6.8265223473872609e+00 -2 1 0
1737 444 1 4.1499999999999998e-01 5.4871354620082646e-01 9.6494117126873817e+00 7.2816830610045375e+00 1 0 0
2495 444 1 4.1499999999999998e-01 4.1914060502395589e+00 1.1986570175466484e+01 7.9854669801640874e+00 -3 2 0
1736 444 1 4.1499999999999998e-01 1.3157682755889424e+00 8.3621800361560581e+00 7.0659124103002968e+00 1 0 0
2496 444 1 4.1499999999999998e-01 4.5212310007523548e+00 1.2524077975838365e+01 6.6091689002723184e+00 -3 2 0
1735 444 2 -8.2999999999999996e-01 4.5050948356469639e-01 8.6974536335642032e+00 7.3007545108020846e+00 1 0 0
713 444 1 4.1499999999999998e-01 1.9419105455401355e+00 1.1507330284458869e+01 6.3883067036187811e+00 -2 1 0
47 444 1 4.1499999999999998e-01 4.4871228090336573e-01 1.3888408165109011e+01 6.7126650433649848e+00 4 2 0
1413 444 1 4.1499999999999998e-01 4.9045819298569278e+00 1.5106242904104780e+01 7.1652092776258609e+00 0 2 0
1411 444 2 -8.2999999999999996e-01 5.3081111973700477e+00 1.4254723163725441e+01 6.9969528995952839e+00 0 2 0
2592 444 1 4.1499999999999998e-01 3.6064950779192566e+00 8.4558173023371896e+00 7.1463111035459708e+00 5 -2 0
846 444 1 4.1499999999999998e-01 2.6269531831780628e+00 1.3191468566699589e+01 9.9344759583821531e+00 3 4 0
845 444 1 4.1499999999999998e-01 2.9011825120514056e+00 1.4194326659331432e+01 8.8340355106210691e+00 3 4 0
2998 444 2 -8.2999999999999996e-01 1.0169182067149274e+00 1.1172700278563219e+01 1.3464917215035342e+01 -3 -3 0
241 444 2 -8.2999999999999996e-01 1.7973575311969583e+00 1.1559017577370145e+01 9.3942430238439787e+00 3 1 0
2250 444 1 4.1499999999999998e-01 4.5127725815736390e+00 1.2737740252939064e+01 1.3551704815545415e+01 0 0 0
2360 444 1 4.1499999999999998e-01 3.7273444092709345e+00 1.1064349309762697e+01 1.2334254405139720e+01 0 3 0
2359 444 2 -8.2999999999999996e-01 3.7983613661185238e+00 1.0547676182348587e+01 1.1531609944517719e+01 0 3 0
2361 444 1 4.1499999999999998e-01 3.2058778992446895e+00 1.0978617394044079e+01 1.0915586454953436e+01 0 3 0
2999 444 1 4.1499999999999998e-01 1.7954738634761451e+00 1.1705516071896973e+01 1.3626753286090011e+01 -3 -3 0
1467 444 1 4.1499999999999998e-01 4.5965438714316953e+00 9.6400802057633896e+00 1.3816227056532245e+01 1 6 0
2804 444 1 4.1499999999999998e-01 1.0020734897181354e+00 1.5697643327109690e+01 1.0342904507767829e+01 4 0 0
1030 444 2 -8.2999999999999996e-01 1.6968588348342235e+00 1.3946429179677949e+01 1.3984005785056874e+01 1 0 0
2248 444 2 -8.2999999999999996e-01 3.7146014456170269e+00 1.2226554853291402e+01 1.3685287559108058e+01 0 0 0
2249 444 1 4.1499999999999998e-01 3.0191967497012269e+00 1.2880779481618829e+01 1.3753364049258723e+01 0 0 0
242 444 1 4.1499999999999998e-01 1.5916137345444683e+00 1.1274444539766410e+01 8.5037827067647189e+00 3 1 0
3000 444 1 4.1499999999999998e-01 2.8624916405629586e-01 1.1786509355034376e+01 1.3539708195674264e+01 -3 -3 0
243 444 1 4.1499999999999998e-01 1.2016301212620322e+00 1.1056909142253543e+01 9.9503256277195486e+00 3 1 0
1465 444 2 -8.2999999999999996e-01 5.3983021846978332e+00 9.1283543366318884e+00 1.3708746398531719e+01 1 6 0
1964 444 1 4.1499999999999998e-01 4.2655098416087185e+00 8.3964254289521367e+00 9.8622046087623758e+00 1 4 0
2417 444 1 4.1499999999999998e-01 5.4112103344379048e-01 9.7000035211999815e+00 1.2818118988006949e+01 -4 0 0
2416 444 2 -8.2999999999999996e-01 2.8272896469545955e-01 8.8786524763957573e+00 1.2399970674075311e+01 -4 0 0
2111 444 1 4.1499999999999998e-01 4.5890973229500709e+00 1.3058510263895512e+01 1.5523263306868099e+01 -3 -6 0
2246 444 1 4.1499999999999998e-01 1.9380960590149470e+00 1.0197187062247982e+01 1.5026953243623659e+01 -2 -2 0
1032 444 1 4.1499999999999998e-01 9.4874620273356980e-01 1.3775892347118015e+01 1.3411750056192766e+01 1 0 0
2245 444 2 -8.2999999999999996e-01 2.2632480886517170e+00 9.3108758909092195e+00 1.5184943434330917e+01 -2 -2 0
2247 444 1 4.1499999999999998e-01 2.5125525529299262e+00 8.9887478780870982e+00 1.4318737361546075e+01 -2 -2 0
2805 444 1 4.1499999999999998e-01 1.1773549962671386e+00 1.6251351794584593e+01 1.1740966966314202e+01 4 0 0
2454 444 1 4.1499999999999998e-01 4.3060567148595030e+00 1.5699956379004799e+01 1.0700754251836051e+01 -5 3 0
1430 444 1 4.1499999999999998e-01 4.7891776751236108e+00 1.3683631671218944e+01 1.0446193795408554e+01 3 3 0
2614 444 2 -8.2999999999999996e-01 1.1686360664298429e-01 1.6041108293381029e+01 8.4638089312534799e+00 0 -3 0
1932 444 1 4.1499999999999998e-01 1.0004271463784733e+00 8.5753674167465341e+00 1.6222762376241658e+01 -2 3 0
844 444 2 -8.2999999999999996e-01 3.1960839439242150e+00 1.3925833981792110e+01 9.7041945368059874e+00 3 4 0
2803 444 2 -8.2999999999999996e-01 6.9443680855868906e-01 1.5591686910438925e+01 1.1243107292129492e+01 4 0 0
1031 444 1 4.1499999999999998e-01 1.6161786530620488e+00 1.4871795154505747e+01 1.4215134322485426e+01 1 0 0
3002 444 1 4.1499999999999998e-01 3.7284357337673528e+00 9.0780530561406199e+00 2.2417063051038568e+01 5 -4 0
2050 444 2 -8.2999999999999996e-01 1.9259021190172043e+00 1.5633730091163550e+01 2.3842803448646634e+01 1 5 0
1871 444 1 4.1499999999999998e-01 7.0579615803182139e-01 9.0892230401528114e+00 2.1450807972528992e+01 -3 1 0
29 444 2 -8.2999999999999996e-01 3.8123135656138518e-01 1.6337224558870201e+01 1.7731959093659313e+01 0 3 0
2052 444 1 4.1499999999999998e-01 1.3509929074791702e+00 1.5714072259213575e+01 2.3081714192323975e+01 1 5 0
1190 444 1 4.1499999999999998e-01 5.1293523518418593e-01 1.1726507016279825e+01 2.0528028851487939e+01 2 5 0
2201 444 1 4.1499999999999998e-01 1.8159939082019283e+00 1.3607076426095395e+01 1.6466841335857751e+01 3 1 0
32 444 1 4.1499999999999998e-01 8.0869559352581155e-01 1.5481318935988078e+01 1.7762502077103711e+01 0 3 0
1772 444 1 4.1499999999999998e-01 1.6604812210822699e+00 1.3604805070102991e+01 2.1792931620553741e+01 1 0 0
2200 444 2 -8.2999999999999996e-01 1.7538367364038236e+00 1.3895065870037728e+01 1.7377572050701005e+01 3 1 0
1503 444 1 4.1499999999999998e-01 4.3518093012736561e+00 1.5139459787876559e+01 1.8840508303858133e+01 -3 -2 0
1502 444 1 4.1499999999999998e-01 4.3168238766748006e+00 1.5893293771342517e+01 1.7528103755562721e+01 -3 -2 0
759 444 1 4.1499999999999998e-01 3.1537784126317923e+00 1.3394736719209531e+01 2.3796882820642573e+01 0 -4 0
1501 444 2 -8.2999999999999996e-01 4.0564662761897718e+00 1.5065937586055659e+01 1.7932984575112087e+01 -3 -2 0
2885 444 1 4.1499999999999998e-01 3.8216631150608413e+00 9.3644185269984508e+00 1.8628066929401342e+01 3 5 0
2886 444 1 4.1499999999999998e-01 3.8989189496430705e+00 1.0097135462681525e+01 1.9950584729453698e+01 3 5 0
41 444 1 4.1499999999999998e-01 2.0628334448034482e+00 1.1248802994892936e+01 1.9074905681748518e+01 2 -8 0
1815 444 1 4.1499999999999998e-01 4.0319756902475499e+00 1.4899826246580743e+01 2.1885793490214400e+01 3 -4 0
42 444 1 4.1499999999999998e-01 1.8096129718489014e+00 1.2654817818675262e+01 1.8574007914606184e+01 2 -8 0
1870 444 2 -8.2999999999999996e-01 9.6299435419981705e-01 8.2927026215260575e+00 2.1915174415850743e+01 -3 1 0
2884 444 2 -8.2999999999999996e-01 3.2894628594124673e+00 9.8574856237004020e+00 1.9252470514076187e+01 3 5 0
1773 444 1 4.1499999999999998e-01 1.4006116356447245e+00 1.3591405288127827e+01 2.0301561910135458e+01 1 0 0
2898 444 1 4.1499999999999998e-01 4.7849086316841678e+00 1.2130657650928555e+01 2.1405134586558457e+01 0 2 0
2896 444 2 -8.2999999999999996e-01 4.6871810908199123e+00 1.1180527477324491e+01 2.1342404914214189e+01 0 2 0
2202 444 1 4.1499999999999998e-01 2.6293373989339863e+00 1.4220711992243173e+01 1.7586581944036499e+01 3 1 0
2897 444 1 4.1499999999999998e-01 4.4516438348987650e+00 1.0904502346443264e+01 2.2228161723186261e+01 0 2 0
2110 444 2 -8.2999999999999996e-01 4.4827381138751328e+00 1.2902355887840230e+01 1.6461631828547027e+01 -3 -6 0
1872 444 1 4.1499999999999998e-01 1.9183460511980168e+00 8.2790520103943717e+00 2.1857306348594946e+01 -3 1 0
1009 444 2 -8.2999999999999996e-01 5.0346983537095866e+00 1.6233451804994612e+01 2.0743730484240924e+01 -2 -3 0
933 444 1 4.1499999999999998e-01 3.2676870177706991e+00 8.7185223402214156e+00 1.6531778736520749e+01 1 -3 0
40 444 2 -8.2999999999999996e-01 1.6125957407327645e+00 1.2062951174273136e+01 1.9300031873971097e+01 2 -8 0
1813 444 2 -8.2999999999999996e-01 4.2805651982435515e+00 1.3982865844593993e+01 2.2002496974777863e+01 3 -4 0
1771 444 2 -8.2999999999999996e-01 1.2095885711510215e+00 1.4085534688048234e+01 2.1098794022458666e+01 1 0 0
1814 444 1 4.1499999999999998e-01 5.1807007810478805e+00 1.3935384619823255e+01 2.1680419655794992e+01 3 -4 0
3001 444 2 -8.2999999999999996e-01 3.5610425378338197e+00 8.3083325916468382e+00 2.1873240711125799e+01 5 -4 0
2834 444 1 4.1499999999999998e-01 3.2449096349275228e+00 1.1177709654871380e+01 2.3981676116569588e+01 2 -1 0
2328 444 1 4.1499999999999998e-01 5.1376270126014898e+00 1.1478815469192835e+01 1.7393905121604572e+01 1 3 0
2112 444 1 4.1499999999999998e-01 4.5680672184630318e+00 1.3768422577116652e+01 1.6860229198880074e+01 -3 -6 0
2833 444 2 -8.2999999999999996e-01 3.7854258729712886e+00 1.0387748367984939e+01 2.3975738336297027e+01 2 -1 0
931 444 2 -8.2999999999999996e-01 3.9091447003536657e+00 8.3041360152328370e+00 1.7108881788612013e+01 1 -3 0
1011 444 1 4.1499999999999998e-01 5.4462380090292317e+00 1.5390432930738337e+01 2.0553503829630902e+01 -2 -3 0
2138 444 1 4.1499999999999998e-01 6.2108120839022098e-02 1.0317919196369596e+01 2.9658739750146946e+01 6 1 0
2573 444 1 4.1499999999999998e-01 3.0938879403660879e-01 1.3309753389142992e+01 3.2452570104245822e+01 -2 1 0
66 444 1 4.1499999999999998e-01 4.7597072617060263e+00 1.3030213937951890e+01 2.4605047751505111e+01 1 2 0
461 444 1 4.1499999999999998e-01 4.8174134669431501e+00 1.4575605940032339e+01 2.6404270104315025e+01 2 -2 0
1593 444 1 4.1499999999999998e-01 5.2107464615490882e+00 1.3272219348205596e+01 3.0972247448181996e+01 1 -1 0
2142 444 1 4.1499999999999998e-01 5.3435723386722568e-02 8.7690026901378193e+00 2.5813743364573075e+01 0 2 0
1196 444 1 4.1499999999999998e-01 2.4362852506268293e+00 1.5911767572016647e+01 2.6589045805322950e+01 5 -1 0
1592 444 1 4.1499999999999998e-01 4.9758344844260778e+00 1.2598720580230378e+01 3.2307579367695581e+01 1 -1 0
1717 444 2 -8.2999999999999996e-01 5.5917351483000066e-01 1.5850002083807007e+01 2.8687191587875251e+01 -3 -4 0
2005 444 2 -8.2999999999999996e-01 5.0792182428490695e-01 1.2290142497996040e+01 2.5741825657502147e+01 -2 1 0
2176 444 2 -8.2999999999999996e-01 4.8147304812728979e+00 9.1808128042842192e+00 2.9881513619321996e+01 2 0 0
757 444 2 -8.2999999999999996e-01 2.9582481169055654e+00 1.2706141729750760e+01 2.4432364747360396e+01 0 -4 0
2006 444 1 4.1499999999999998e-01 3.5731810174952761e-01 1.1425257769451154e+01 2.6123304404628534e+01 -2 1 0
462 444 1 4.1499999999999998e-01 3.8823890719460636e+00 1.3918412779550026e+01 2.7397105381033803e+01 2 -2 0
2115 444 1 4.1499999999999998e-01 5.0942562652000580e+00 1.1229935998335524e+01 2.9604708832225736e+01 -3 2 0
2113 444 2 -8.2999999999999996e-01 4.9702497241520254e+00 1.2177670463110941e+01 2.9553192344465526e+01 -3 2 0
2114 444 1 4.1499999999999998e-01 4.2563355434190671e+00 1.2292549746798358e+01 2.8926006989872388e+01 -3 2 0
2178 444 1 4.1499999999999998e-01 4.3526618642334611e+00 8.8949159488214757e+00 3.0669541415535186e+01 2 0 0
2574 444 1 4.1499999999999998e-01 2.9366519772404071e-01 1.3661126244324196e+01 3.0980094206577796e+01 -2 1 0
758 444 1 4.1499999999999998e-01 2.0926267129651919e+00 1.2932340327357094e+01 2.4772609346556610e+01 0 -4 0
1867 444 2 -8.2999999999999996e-01 3.9502951618270852e+00 9.8404784804174188e+00 2.7055600263773893e+01 4 0 0
319 444 2 -8.2999999999999996e-01 1.6402827235086042e+00 1.3462638841008124e+01 2.9628092529955520e+01 1 -3 0
320 444 1 4.1499999999999998e-01 1.6013470888675463e+00 1.4384650403598521e+01 2.9373905912029855e+01 1 -3 0
321 444 1 4.1499999999999998e-01 2.1090947245525551e+00 1.3035620091816972e+01 2.8911082860909282e+01 1 -3 0
1868 444 1 4.1499999999999998e-01 3.1934039305033091e+00 9.3713235225716645e+00 2.6704542483776159e+01 4 0 0