LAMMPS data file via write_data, version 11 Aug 2017, timestep = 1000000

3579 atoms
14 atom types
2024 bonds
5 bond types
1018 angles
5 angle types
12 dihedrals
4 dihedral types
9 impropers
1 improper types

0.0000000000000000e+00 3.2704500000000003e+01 xlo xhi
0.0000000000000000e+00 3.2704500000000003e+01 ylo yhi
0.0000000000000000e+00 8.0000000000000000e+01 zlo zhi

Masses

1 1.0079
2 15.9994
3 39.0983
4 63.546
5 12.011
6 15.9994
7 1.0079
8 12.011
9 1.0079
10 12.011
11 15.9994
12 15.9994
13 15.9994
14 1.0079

Bond Coeffs # harmonic

1 450 0.9572
2 570 1.229
3 450 1.364
4 570 1.229
5 553 0.945

Angle Coeffs # harmonic

1 100 123.32
2 85 124
3 55 104.52
4 35 113
5 100 123.32

Dihedral Coeffs # charmm

1 0.922 1 180 0
2 3.741 2 0 0
3 0.922 1 0 0
4 3.741 2 180 0

Improper Coeffs # umbrella

1 21 0

Atoms # full

3049 444 4 -7.4069999999999997e-02 1.6693899999999999e+00 6.6883000000000004e-01 3.5969199999999999e+00 0 0 0
3051 444 4 0.0000000000000000e+00 1.6560500000000000e+00 2.4790000000000001e+00 1.8169999999999999e+00 0 0 0
3060 444 4 0.0000000000000000e+00 1.6560500000000000e+00 6.6205000000000003e-01 0.0000000000000000e+00 0 0 0
913 444 2 -8.2999999999999996e-01 1.6362723407896131e+00 4.0610969459423636e+00 7.0012648403407374e+00 -4 1 0
915 444 1 4.1499999999999998e-01 1.1789975093333553e+00 3.7783990303387003e+00 6.2092967531188252e+00 -4 1 0
1643 444 1 4.1499999999999998e-01 1.5913752296329761e-01 1.8087847452974322e+00 9.8258720795399785e+00 -3 -2 0
893 444 1 4.1499999999999998e-01 1.2278636895996247e+00 1.1037345728718715e+00 1.3147080878106365e+01 1 -4 0
892 444 2 -8.2999999999999996e-01 1.5200991475784089e+00 2.0060374020830376e+00 1.3276233199164377e+01 1 -4 0
2741 444 1 4.1499999999999998e-01 1.4028266056612515e+00 2.2185183270225868e+00 1.5194842780623135e+01 0 0 0
2742 444 1 4.1499999999999998e-01 1.2549002211477853e-01 2.8037033046218993e+00 1.5758638069470100e+01 0 0 0
340 444 2 -8.2999999999999996e-01 1.8588537524390365e+00 9.8574369126824180e-01 9.8354140387181701e+00 3 1 0
753 444 1 4.1499999999999998e-01 8.5191723621376658e-01 3.8483460650812833e+00 1.3309873686150270e+01 5 3 0
1524 444 1 4.1499999999999998e-01 1.1486029080670890e+00 3.7337501836018814e+00 9.9624785911986695e+00 6 0 0
501 444 1 4.1499999999999998e-01 2.6475039788248211e-01 2.9340931365148228e+00 1.8628263903048300e+01 -1 3 0
499 444 2 -8.2999999999999996e-01 4.2596704751665243e-01 3.5600017240953403e+00 1.9334294715630481e+01 -1 3 0
206 444 1 4.1499999999999998e-01 7.9382639655146781e-01 1.1373389149991513e+00 1.7431372924804098e+01 -2 2 0
205 444 2 -8.2999999999999996e-01 6.9220317970763612e-01 7.1585671278909657e-01 1.8284752876921200e+01 -2 2 0
2740 444 2 -8.2999999999999996e-01 9.8236821730211121e-01 2.4654146300458688e+00 1.6018547612793721e+01 0 0 0
3066 444 4 0.0000000000000000e+00 1.6560500000000000e+00 4.2959500000000004e+00 0.0000000000000000e+00 0 0 0
3067 444 4 -7.4069999999999997e-02 1.6724699999999999e+00 4.2797200000000002e+00 3.5825100000000001e+00 0 0 0
3069 444 4 0.0000000000000000e+00 1.6560500000000000e+00 6.1128000000000000e+00 1.8169999999999999e+00 0 0 0
3086 444 4 0.0000000000000000e+00 1.6560500000000000e+00 7.9297500000000003e+00 0.0000000000000000e+00 0 0 0
3087 444 4 -7.4069999999999997e-02 1.6715599999999999e+00 7.9311100000000003e+00 3.5735899999999998e+00 0 0 0
1672 444 2 -8.2999999999999996e-01 1.7891104834061122e+00 6.8733023716789212e+00 7.3160411518714916e+00 -8 -4 0
1674 444 1 4.1499999999999998e-01 1.7920389743837564e+00 6.8446363836225173e+00 6.3592745452416874e+00 -8 -4 0
914 444 1 4.1499999999999998e-01 9.3693530630902921e-01 4.2921074526660199e+00 7.6126515587154273e+00 -4 1 0
1673 444 1 4.1499999999999998e-01 1.8328856135911635e+00 5.9553503158147656e+00 7.5837732235421882e+00 -8 -4 0
2118 444 1 4.1499999999999998e-01 1.7762135276722544e+00 7.1950733868565919e+00 9.2889558366238205e+00 1 4 0
752 444 1 4.1499999999999998e-01 1.1742306021856495e+00 4.8583803707485647e+00 1.2229207198555553e+01 5 3 0
751 444 2 -8.2999999999999996e-01 1.1850652928394563e+00 4.7360307011321838e+00 1.3178494074922241e+01 5 3 0
1522 444 2 -8.2999999999999996e-01 1.6329668707468168e+00 4.3056173515456502e+00 1.0557954474146767e+01 6 0 0
2116 444 2 -8.2999999999999996e-01 1.8148966858682438e+00 7.1256571857935098e+00 1.0242851734211307e+01 1 4 0
2133 444 1 4.1499999999999998e-01 1.2729396540671718e+00 5.4006907078112425e+00 1.5340878749972836e+01 1 -2 0
2117 444 1 4.1499999999999998e-01 1.5254404182226999e+00 6.2327620250383697e+00 1.0430430770410599e+01 1 4 0
2132 444 1 4.1499999999999998e-01 1.0396954543628381e+00 4.2448238442055306e+00 1.6290333436259854e+01 1 -2 0
2131 444 2 -8.2999999999999996e-01 1.4345307403071923e+00 5.1153521350270559e+00 1.6240157523013846e+01 1 -2 0
270 444 1 4.1499999999999998e-01 1.5386376131077859e+00 5.6628132666703941e+00 1.9573337229113896e+01 -4 -2 0
268 444 2 -8.2999999999999996e-01 1.0702079146865200e+00 6.3899733805429921e+00 1.9163405468801738e+01 -4 -2 0
269 444 1 4.1499999999999998e-01 6.3907573688460928e-01 5.9995759651159792e+00 1.8403177186209088e+01 -4 -2 0
3089 444 4 0.0000000000000000e+00 1.6560500000000000e+00 9.7467000000000006e+00 1.8169999999999999e+00 0 0 0
3108 444 4 -7.4069999999999997e-02 1.6693899999999999e+00 1.1570320000000001e+01 3.5969199999999999e+00 0 0 0
3119 444 4 0.0000000000000000e+00 1.6560500000000000e+00 1.1563549999999999e+01 0.0000000000000000e+00 0 0 0
615 444 1 4.1499999999999998e-01 1.6509144018625301e+00 8.6954989871365171e+00 7.2555218725649846e+00 -3 4 0
1035 444 1 4.1499999999999998e-01 4.0213658013501791e-01 1.0353876809888430e+01 6.7582644313652596e+00 -3 3 0
613 444 2 -8.2999999999999996e-01 1.8466554543355458e+00 9.6064435570227857e+00 7.0362092129098830e+00 -3 4 0
949 444 2 -8.2999999999999996e-01 1.9255769772473357e+00 9.1103246604168877e+00 1.3269892890709091e+01 -4 4 0
1585 444 2 -8.2999999999999996e-01 5.8092618110775740e-01 1.1582323116366361e+01 1.2137079168743638e+01 3 1 0
495 444 1 4.1499999999999998e-01 9.0457444485514327e-01 8.4100794766933511e+00 1.1385192197499792e+01 3 2 0
2770 444 2 -8.2999999999999996e-01 1.2516094812792431e+00 1.1387429544106034e+01 1.4871180641408898e+01 4 0 0
2772 444 1 4.1499999999999998e-01 3.8529710151279917e-01 1.0989859607403464e+01 1.4958775514781777e+01 4 0 0
1586 444 1 4.1499999999999998e-01 7.5988849396190383e-01 1.1327650841284541e+01 1.3042256689623121e+01 3 1 0
1587 444 1 4.1499999999999998e-01 1.2093379859368159e+00 1.1080558807275960e+01 1.1617884597189480e+01 3 1 0
2771 444 1 4.1499999999999998e-01 1.5462139116983236e+00 1.1521744821184603e+01 1.5771957810216930e+01 4 0 0
950 444 1 4.1499999999999998e-01 2.0066921702073377e+00 9.6989710949278045e+00 1.4020324462842870e+01 -4 4 0
437 444 1 4.1499999999999998e-01 7.9174077952662603e-01 9.5407502732344351e+00 1.9933573318283837e+01 0 2 0
354 444 1 4.1499999999999998e-01 2.5205595255995988e-01 1.1850890907225777e+01 1.9357165873591114e+01 3 -3 0
436 444 2 -8.2999999999999996e-01 1.6636626651896922e+00 9.9351927161409659e+00 1.9913572291535473e+01 0 2 0
685 444 2 -8.2999999999999996e-01 1.5337780879353855e+00 1.1817936561279749e+01 1.7454828865287997e+01 4 6 0
438 444 1 4.1499999999999998e-01 2.0240917717017832e+00 9.6778081353517535e+00 1.9064998574847014e+01 0 2 0
3110 444 4 0.0000000000000000e+00 1.6560500000000000e+00 1.3380500000000000e+01 1.8169999999999999e+00 0 0 0
3125 444 4 0.0000000000000000e+00 1.6560500000000000e+00 1.5197450000000000e+01 0.0000000000000000e+00 0 0 0
3126 444 4 -7.4069999999999997e-02 1.6724699999999999e+00 1.5181220000000000e+01 3.5825100000000001e+00 0 0 0
451 444 2 -8.2999999999999996e-01 1.1149942384732017e+00 1.5279725547722212e+01 6.7276929348185712e+00 1 1 0
452 444 1 4.1499999999999998e-01 4.3547196668932808e-01 1.4820870533180299e+01 6.2337966550094599e+00 1 1 0
453 444 1 4.1499999999999998e-01 1.9080328980503525e+00 1.5170872052075762e+01 6.2028381823098160e+00 1 1 0
1274 444 1 4.1499999999999998e-01 1.2636766552528185e+00 1.2972352636304969e+01 1.1618806607394852e+01 0 -2 0
1535 444 1 4.1499999999999998e-01 7.1329392276702974e-01 1.4574676245279766e+01 1.5721572864310504e+01 0 0 0
158 444 1 4.1499999999999998e-01 6.1403007812343968e-01 1.4467451267996152e+01 1.3013901574671575e+01 3 -5 0
157 444 2 -8.2999999999999996e-01 6.3901875550483578e-01 1.4283142897171595e+01 1.3952857357336647e+01 3 -5 0
159 444 1 4.1499999999999998e-01 9.8505092318860921e-01 1.3392742038903993e+01 1.4013520934048810e+01 3 -5 0
1273 444 2 -8.2999999999999996e-01 1.5200760466906129e+00 1.3791063337342566e+01 1.1194300927961867e+01 0 -2 0
539 444 1 4.1499999999999998e-01 8.2553208256196642e-01 1.4427260725677932e+01 9.7294794615445443e+00 -1 1 0
538 444 2 -8.2999999999999996e-01 2.8526878667851424e-01 1.5054676933767523e+01 9.2491700703047499e+00 -1 1 0
540 444 1 4.1499999999999998e-01 5.8203404089187116e-01 1.4981915435697665e+01 8.3420487652512811e+00 -1 1 0
1536 444 1 4.1499999999999998e-01 1.9304156976921292e+00 1.4618113532317256e+01 1.6620807460528333e+01 0 0 0
1534 444 2 -8.2999999999999996e-01 9.7617607689257579e-01 1.4545795764926144e+01 1.6641513480838874e+01 0 0 0
686 444 1 4.1499999999999998e-01 1.2934682685381502e+00 1.2710548929698545e+01 1.7206381303800878e+01 4 6 0
3128 444 4 0.0000000000000000e+00 1.6560500000000000e+00 1.7014299999999999e+01 1.8169999999999999e+00 0 0 0
3145 444 4 0.0000000000000000e+00 1.6560500000000000e+00 1.8831250000000001e+01 0.0000000000000000e+00 0 0 0
3146 444 4 -7.4069999999999997e-02 1.6715599999999999e+00 1.8832609999999999e+01 3.5735899999999998e+00 0 0 0
1789 444 2 -8.2999999999999996e-01 1.1211693742967064e+00 2.0286003983479507e+01 7.0926508961232413e+00 1 2 0
1790 444 1 4.1499999999999998e-01 1.4995871518726227e+00 2.0010865860615080e+01 6.2575873892699088e+00 1 2 0
890 444 1 4.1499999999999998e-01 1.9121784189739968e+00 1.7541539970768234e+01 6.9287622120783467e+00 2 1 0
589 444 2 -8.2999999999999996e-01 1.3955904537431814e+00 1.8634367370431267e+01 1.5574118483367652e+01 -1 3 0
536 444 1 4.1499999999999998e-01 6.7613396197268127e-01 1.6440833683051089e+01 1.0047368707392572e+01 1 -1 0
537 444 1 4.1499999999999998e-01 1.7941068325880292e+00 1.7459941898307438e+01 1.0106108066573851e+01 1 -1 0
535 444 2 -8.2999999999999996e-01 8.5922776874807161e-01 1.7351009268188101e+01 1.0280368555118974e+01 1 -1 0
1803 444 1 4.1499999999999998e-01 1.6465573982602846e+00 1.7375837683195240e+01 1.2093278260994175e+01 1 -3 0
591 444 1 4.1499999999999998e-01 5.9429046208249370e-01 1.8148640168466653e+01 1.5769617261540649e+01 -1 3 0
590 444 1 4.1499999999999998e-01 1.7341642940207567e+00 1.8227715022541553e+01 1.4776475614734919e+01 -1 3 0
1092 444 1 4.1499999999999998e-01 1.4177221001275107e+00 2.0125669541827996e+01 1.4475341160238990e+01 1 -6 0
2830 444 2 -8.2999999999999996e-01 4.1696615880377924e-01 1.8226376736836148e+01 1.9257752492705560e+01 0 1 0
626 444 1 4.1499999999999998e-01 1.8677230658481385e+00 1.7660619982946070e+01 1.8585188922291241e+01 1 -4 0
2831 444 1 4.1499999999999998e-01 4.3357947730130070e-01 1.9065441516480696e+01 1.9718108034063672e+01 0 1 0
2832 444 1 4.1499999999999998e-01 3.7359151138800388e-02 1.7614239862040073e+01 1.9888164693476334e+01 0 1 0
3148 444 4 0.0000000000000000e+00 1.6560500000000000e+00 2.0648199999999999e+01 1.8169999999999999e+00 0 0 0
3167 444 4 -7.4069999999999997e-02 1.6693899999999999e+00 2.2471820000000001e+01 3.5969199999999999e+00 0 0 0
3169 444 4 0.0000000000000000e+00 1.6560500000000000e+00 2.4282000000000000e+01 1.8169999999999999e+00 0 0 0
3178 444 4 0.0000000000000000e+00 1.6560500000000000e+00 2.2465050000000002e+01 0.0000000000000000e+00 0 0 0
1791 444 1 4.1499999999999998e-01 9.2289126938876720e-01 2.1214628227574078e+01 6.9719216584123052e+00 1 2 0
704 444 1 4.1499999999999998e-01 7.2869814201823013e-01 2.3600985503209994e+01 6.9454963243315362e+00 -1 3 0
703 444 2 -8.2999999999999996e-01 1.9499797041846853e-01 2.2817441096564561e+01 7.0776104379542630e+00 -1 3 0
1090 444 2 -8.2999999999999996e-01 1.4013001574233757e+00 2.1062463946805188e+01 1.4279434203456983e+01 1 -6 0
1091 444 1 4.1499999999999998e-01 1.0723830306268258e+00 2.1469518879044223e+01 1.5080903019671769e+01 1 -6 0
12 444 3 1.0000000000000000e+00 6.0252167484835428e-01 2.1509709954387965e+01 1.1558239419891230e+01 -1 -2 0
2647 444 2 -8.2999999999999996e-01 1.1822674626621783e+00 2.4160088079696830e+01 9.7988429041341885e+00 -4 4 0
2648 444 1 4.1499999999999998e-01 1.6328199202027578e+00 2.3995551321902113e+01 8.9704937173117507e+00 -4 4 0
1954 444 2 -8.2999999999999996e-01 1.1815066053668830e+00 2.4439329656881512e+01 1.4462953928446433e+01 4 -7 0
1955 444 1 4.1499999999999998e-01 2.8726403890057833e-01 2.4179391625802346e+01 1.4241607344074673e+01 4 -7 0
1956 444 1 4.1499999999999998e-01 1.6516113371839805e+00 2.4415528229100858e+01 1.3629487151036988e+01 4 -7 0
492 444 1 4.1499999999999998e-01 1.9164169967138815e+00 2.0475308703739980e+01 8.7308537824338366e+00 -1 5 0
3184 444 4 0.0000000000000000e+00 1.6560500000000000e+00 2.6098949999999999e+01 0.0000000000000000e+00 0 0 0
3185 444 4 -7.4069999999999997e-02 1.6724699999999999e+00 2.6082719999999998e+01 3.5825100000000001e+00 0 0 0
3187 444 4 0.0000000000000000e+00 1.6560500000000000e+00 2.7915800000000001e+01 1.8169999999999999e+00 0 0 0
881 444 1 4.1499999999999998e-01 1.3883214144603047e+00 2.5522272394964066e+01 7.4037764071134164e+00 0 -3 0
880 444 2 -8.2999999999999996e-01 1.9173486201082544e+00 2.4801535459758437e+01 7.0618688144801762e+00 0 -3 0
218 444 1 4.1499999999999998e-01 1.2151507684838474e+00 2.7615181420393554e+01 1.2328812154063675e+01 2 2 0
217 444 2 -8.2999999999999996e-01 1.3597499103906843e+00 2.7219456175697164e+01 1.3188302981827817e+01 2 2 0
2649 444 1 4.1499999999999998e-01 5.0944283668413437e-01 2.4805472929593499e+01 9.5820053036322328e+00 -4 4 0
2218 444 2 -8.2999999999999996e-01 7.8411651708924590e-01 2.8362867869191618e+01 1.0900036398292041e+01 0 5 0
1565 444 1 4.1499999999999998e-01 2.1446864752343120e-01 2.7226442510345706e+01 9.5882239053167293e+00 1 2 0
2630 444 1 4.1499999999999998e-01 9.7288058170232317e-01 2.5674007517226599e+01 1.5821962149893624e+01 -5 -2 0
2631 444 1 4.1499999999999998e-01 1.7209608739008027e+00 2.5638829118451216e+01 1.7137649586239878e+01 -5 -2 0
433 444 2 -8.2999999999999996e-01 1.9432984978673329e+00 2.7141041982015196e+01 1.9929116020381560e+01 1 -1 0
2629 444 2 -8.2999999999999996e-01 9.0065951435738922e-01 2.5931977801952659e+01 1.6740911148154140e+01 -5 -2 0
2748 444 1 4.1499999999999998e-01 8.8225195824677904e-01 2.7702383407381184e+01 1.6525981928576112e+01 3 -2 0
3204 444 4 0.0000000000000000e+00 1.6560500000000000e+00 2.9732749999999999e+01 0.0000000000000000e+00 0 0 0
3205 444 4 -7.4069999999999997e-02 1.6715599999999999e+00 2.9734110000000001e+01 3.5735899999999998e+00 0 0 0
3207 444 4 0.0000000000000000e+00 1.6560500000000000e+00 3.1549700000000001e+01 1.8169999999999999e+00 0 0 0
2395 444 2 -8.2999999999999996e-01 1.7323898993232429e+00 3.1278200288318700e+01 6.9499811870142052e+00 -1 -1 0
2397 444 1 4.1499999999999998e-01 1.4200795875234937e+00 3.2175190999920950e+01 7.0687338962827377e+00 -1 -1 0
2396 444 1 4.1499999999999998e-01 1.8104225210251401e+00 3.1174832119121962e+01 6.0015836068730817e+00 -1 -1 0
762 444 1 4.1499999999999998e-01 6.0868492759513337e-01 3.1002996285713394e+01 1.2458446507453290e+01 -1 -4 0
760 444 2 -8.2999999999999996e-01 1.4164188934082262e+00 3.1389740146226558e+01 1.2796421177690231e+01 -1 -4 0
761 444 1 4.1499999999999998e-01 1.7699285043081681e+00 3.0726940888383687e+01 1.3389683288610726e+01 -1 -4 0
1465 444 2 -8.2999999999999996e-01 1.7651682019428583e+00 2.9368835310625908e+01 8.7137757647814524e+00 5 1 0
1467 444 1 4.1499999999999998e-01 1.7455584794273544e+00 3.0128290808558525e+01 8.1314745844500003e+00 5 1 0
2219 444 1 4.1499999999999998e-01 1.1795332284840057e+00 2.8833500013727758e+01 1.0166290619337389e+01 0 5 0
17 444 1 4.1499999999999998e-01 2.2781894558977922e-01 3.0715825757983133e+01 1.6434739924545962e+01 1 -3 0
462 444 1 4.1499999999999998e-01 8.7749784290169885e-01 3.0642936856093659e+01 1.9713708777854492e+01 -1 -3 0
1677 444 1 4.1499999999999998e-01 1.6962658720367421e+00 2.8991253391213732e+01 1.7788887837131437e+01 4 2 0
2746 444 2 -8.2999999999999996e-01 7.1744272710487955e-01 2.8623741629457815e+01 1.6325560282405736e+01 3 -2 0
207 444 1 4.1499999999999998e-01 4.0118425647271272e-01 3.2531670187563115e+01 1.8080360788410154e+01 -2 1 0
3050 444 4 0.0000000000000000e+00 3.4729999999999999e+00 6.6205000000000003e-01 1.8169999999999999e+00 0 0 0
3074 444 4 -7.4069999999999997e-02 3.4794499999999999e+00 2.4641299999999999e+00 3.5942300000000000e+00 0 0 0
3075 444 4 0.0000000000000000e+00 3.4729999999999999e+00 2.4790000000000001e+00 0.0000000000000000e+00 0 0 0
115 444 2 -8.2999999999999996e-01 2.6227708421000369e+00 1.4613969284294208e+00 6.9027659866802846e+00 3 5 0
116 444 1 4.1499999999999998e-01 2.5757801310973569e+00 1.2875537325268074e+00 5.9626583789080154e+00 3 5 0
117 444 1 4.1499999999999998e-01 2.0988432943539843e+00 2.2527930127600904e+00 7.0269608014527476e+00 3 5 0
1523 444 1 4.1499999999999998e-01 2.3518418922277951e+00 3.7622689713419195e+00 1.0880791096791620e+01 6 0 0
342 444 1 4.1499999999999998e-01 2.2382605463004834e+00 6.8105242811664446e-01 9.0111289709486435e+00 3 1 0
341 444 1 4.1499999999999998e-01 2.5882142439148748e+00 9.7133706441969336e-01 1.0455138138345141e+01 3 1 0
894 444 1 4.1499999999999998e-01 2.2377507205238660e+00 2.1174446049018245e+00 1.2652696694623245e+01 1 -4 0
1264 444 2 -8.2999999999999996e-01 3.7142494835183180e+00 2.0977013956264194e+00 1.1617367798908703e+01 3 -1 0
1265 444 1 4.1499999999999998e-01 3.9140688811826920e+00 1.1785522792969727e+00 1.1794764896477240e+01 3 -1 0
1728 444 1 4.1499999999999998e-01 3.2548113575363238e+00 2.9159849506518509e+00 1.7803579312102265e+01 -2 -1 0
1396 444 2 -8.2999999999999996e-01 3.3710365128408499e+00 1.3489143715547796e+00 1.8926686122974509e+01 0 -2 0
1398 444 1 4.1499999999999998e-01 2.4932472618512582e+00 1.1354992177812708e+00 1.8610184958111585e+01 0 -2 0
1397 444 1 4.1499999999999998e-01 3.3662794202589597e+00 1.0817378834156450e+00 1.9845830521468198e+01 0 -2 0
1726 444 2 -8.2999999999999996e-01 3.6533732494804645e+00 3.7565956926876392e+00 1.7578292696288869e+01 -2 -1 0
644 444 1 4.1499999999999998e-01 3.9827036203036021e+00 9.6224836604271868e-01 1.7454398332227477e+01 1 -1 0
3064 444 4 0.0000000000000000e+00 3.4729999999999999e+00 6.1128000000000000e+00 0.0000000000000000e+00 0 0 0
3065 444 4 -7.4069999999999997e-02 3.4727700000000001e+00 6.1082700000000001e+00 3.5898800000000000e+00 0 0 0
3068 444 4 0.0000000000000000e+00 3.4729999999999999e+00 4.2959500000000004e+00 1.8169999999999999e+00 0 0 0
3088 444 4 0.0000000000000000e+00 3.4729999999999999e+00 7.9297500000000003e+00 1.8169999999999999e+00 0 0 0
1527 444 1 4.1499999999999998e-01 3.6170874777059536e+00 4.3514083783410165e+00 6.6324218110339741e+00 1 5 0
2644 444 2 -8.2999999999999996e-01 3.8628044165049134e+00 6.4235235992730981e+00 1.5835492921478501e+01 5 5 0
2288 444 1 4.1499999999999998e-01 3.3193846772403699e+00 6.2300007943759379e+00 1.1743478355448719e+01 0 -1 0
2385 444 1 4.1499999999999998e-01 3.5498943608390574e+00 4.2096031147936683e+00 1.3852971832879488e+01 1 -1 0
1727 444 1 4.1499999999999998e-01 3.0407948750177600e+00 4.4105378144646465e+00 1.7914952011760505e+01 -2 -1 0
382 444 2 -8.2999999999999996e-01 3.5932916500134136e+00 7.6277195400411175e+00 1.9688682532624718e+01 -4 2 0
383 444 1 4.1499999999999998e-01 2.6630138408628170e+00 7.5988556448596416e+00 1.9465116026770545e+01 -4 2 0
2645 444 1 4.1499999999999998e-01 3.1766159861307943e+00 5.9410903262114614e+00 1.6296617905191674e+01 5 5 0
3084 444 4 0.0000000000000000e+00 3.4729999999999999e+00 9.7467000000000006e+00 0.0000000000000000e+00 0 0 0
3085 444 4 -7.4069999999999997e-02 3.4759699999999998e+00 9.7581900000000008e+00 3.5970300000000002e+00 0 0 0
3109 444 4 0.0000000000000000e+00 3.4729999999999999e+00 1.1563549999999999e+01 1.8169999999999999e+00 0 0 0
614 444 1 4.1499999999999998e-01 2.6243962682773847e+00 9.5576743420058143e+00 6.4803559388857410e+00 -3 4 0
633 444 1 4.1499999999999998e-01 3.9220031333502230e+00 1.1959750747207519e+01 6.8673370052485607e+00 4 1 0
1895 444 1 4.1499999999999998e-01 3.4115716996212067e+00 8.7253759249297254e+00 9.7253476158765846e+00 -1 -1 0
1894 444 2 -8.2999999999999996e-01 3.3038307017900959e+00 9.6400985693077121e+00 9.4647591639722197e+00 -1 -1 0
1896 444 1 4.1499999999999998e-01 2.7539839992150217e+00 9.6034991273392212e+00 8.6820962115355123e+00 -1 -1 0
951 444 1 4.1499999999999998e-01 2.8283775267061269e+00 8.9277075957927625e+00 1.3009443180984867e+01 -4 4 0
2963 444 1 4.1499999999999998e-01 3.2749295706583141e+00 8.8522106785824430e+00 1.6854820788349191e+01 0 -1 0
687 444 1 4.1499999999999998e-01 2.2801190603234014e+00 1.1925618798701885e+01 1.8044414760131840e+01 4 6 0
2962 444 2 -8.2999999999999996e-01 2.5993086674438342e+00 9.2113312110411698e+00 1.7429973558235414e+01 0 -1 0
2964 444 1 4.1499999999999998e-01 2.0892169169456172e+00 9.7934006874546000e+00 1.6866738830546460e+01 0 -1 0
3127 444 4 0.0000000000000000e+00 3.4729999999999999e+00 1.5197450000000000e+01 1.8169999999999999e+00 0 0 0
3133 444 4 -7.4069999999999997e-02 3.4794499999999999e+00 1.3365620000000000e+01 3.5942300000000000e+00 0 0 0
3134 444 4 0.0000000000000000e+00 3.4729999999999999e+00 1.3380500000000000e+01 0.0000000000000000e+00 0 0 0
561 444 1 4.1499999999999998e-01 3.6736329755949453e+00 1.5989801563750571e+01 6.7391108850454859e+00 3 1 0
631 444 2 -8.2999999999999996e-01 3.4668212277351591e+00 1.2801700330909357e+01 6.8800741345831380e+00 4 1 0
632 444 1 4.1499999999999998e-01 2.5768649752163171e+00 1.2597750738916417e+01 6.5926471140616538e+00 4 1 0
197 444 1 4.1499999999999998e-01 3.8689442027198404e+00 1.3435100100447318e+01 8.3466919043207533e+00 -1 0 0
2081 444 1 4.1499999999999998e-01 3.6106887422289065e+00 1.4934928415333351e+01 1.5355572805641520e+01 1 -1 0
2737 444 2 -8.2999999999999996e-01 3.7835134568039952e+00 1.5652683035513423e+01 1.3821523727653732e+01 1 -1 0
1275 444 1 4.1499999999999998e-01 2.4452290183916743e+00 1.3896844148960044e+01 1.1415963693435371e+01 0 -2 0
2080 444 2 -8.2999999999999996e-01 3.4771899347692847e+00 1.4328872386361482e+01 1.6084343019975311e+01 1 -1 0
2325 444 1 4.1499999999999998e-01 3.3298274493780666e+00 1.4109675676012142e+01 1.9329998281625983e+01 -3 1 0
2323 444 2 -8.2999999999999996e-01 2.6348797116383182e+00 1.4718262305465981e+01 1.9580800630516794e+01 -3 1 0
2324 444 1 4.1499999999999998e-01 2.7589032326969920e+00 1.5473984589214353e+01 1.9006576070377427e+01 -3 1 0
1320 444 1 4.1499999999999998e-01 3.9842459932040537e+00 1.2327669148405260e+01 1.9496094371587503e+01 7 -5 0
3123 444 4 0.0000000000000000e+00 3.4729999999999999e+00 1.7014299999999999e+01 0.0000000000000000e+00 0 0 0
3124 444 4 -7.4069999999999997e-02 3.4727700000000001e+00 1.7009770000000000e+01 3.5898800000000000e+00 0 0 0
3147 444 4 0.0000000000000000e+00 3.4729999999999999e+00 1.8831250000000001e+01 1.8169999999999999e+00 0 0 0
891 444 1 4.1499999999999998e-01 3.0191101660654640e+00 1.8182112271481639e+01 6.1186606963345973e+00 2 1 0
889 444 2 -8.2999999999999996e-01 2.7984362115712864e+00 1.7895100052074756e+01 7.0047526651963885e+00 2 1 0
1457 444 1 4.1499999999999998e-01 3.3272030456986350e+00 1.7750771139270967e+01 8.7334033199524779e+00 4 -1 0
1802 444 1 4.1499999999999998e-01 2.3901968605914643e+00 1.8650765980449503e+01 1.2430106632951428e+01 1 -3 0
1456 444 2 -8.2999999999999996e-01 3.3123005583341563e+00 1.7644838207616051e+01 9.6846069684340055e+00 4 -1 0
819 444 1 4.1499999999999998e-01 3.0935142212414246e+00 2.0006180467665892e+01 1.0711452362579891e+01 -1 2 0
817 444 2 -8.2999999999999996e-01 2.9932883953104823e+00 1.9915768033896740e+01 1.1659088235784752e+01 -1 2 0
1801 444 2 -8.2999999999999996e-01 2.1646292560054308e+00 1.7790186931747101e+01 1.2783313123300969e+01 1 -3 0
2739 444 1 4.1499999999999998e-01 3.3002639057227050e+00 1.6365047166058488e+01 1.3402908083745347e+01 1 -1 0
791 444 1 4.1499999999999998e-01 3.8244971116614983e+00 2.0019764900575453e+01 1.6489287673607109e+01 -2 4 0
625 444 2 -8.2999999999999996e-01 2.7731538182292121e+00 1.7352751365960433e+01 1.8625752946861439e+01 1 -4 0
792 444 1 4.1499999999999998e-01 2.4922190997089917e+00 1.9593287068682155e+01 1.7068120245706250e+01 -2 4 0
790 444 2 -8.2999999999999996e-01 3.3613077805591081e+00 1.9906128394185316e+01 1.7319211930465038e+01 -2 4 0
627 444 1 4.1499999999999998e-01 3.2853084962996837e+00 1.8061541742681797e+01 1.8236463724312848e+01 1 -4 0
3143 444 4 0.0000000000000000e+00 3.4729999999999999e+00 2.0648199999999999e+01 0.0000000000000000e+00 0 0 0
3144 444 4 -7.4069999999999997e-02 3.4759699999999998e+00 2.0659690000000001e+01 3.5970300000000002e+00 0 0 0
3168 444 4 0.0000000000000000e+00 3.4729999999999999e+00 2.2465050000000002e+01 1.8169999999999999e+00 0 0 0
3192 444 4 -7.4069999999999997e-02 3.4794499999999999e+00 2.4267119999999998e+01 3.5942300000000000e+00 0 0 0
3193 444 4 0.0000000000000000e+00 3.4729999999999999e+00 2.4282000000000000e+01 0.0000000000000000e+00 0 0 0
2715 444 1 4.1499999999999998e-01 3.7551405994149203e+00 2.2362871555080101e+01 5.9493783070864898e+00 0 1 0
2714 444 1 4.1499999999999998e-01 3.8739766221480316e+00 2.3331268110755595e+01 7.1069538985966956e+00 0 1 0
2713 444 2 -8.2999999999999996e-01 3.9529041544736434e+00 2.2403497289523205e+01 6.8850444587293076e+00 0 1 0
491 444 1 4.1499999999999998e-01 3.2306354400385771e+00 2.1211690467902560e+01 8.5809634894046773e+00 -1 5 0
2744 444 1 4.1499999999999998e-01 2.7239582765150594e+00 2.3488273469954340e+01 1.5435927549192376e+01 1 -4 0
2743 444 2 -8.2999999999999996e-01 3.3837933880661857e+00 2.2803351289172582e+01 1.5327613285264247e+01 1 -4 0
490 444 2 -8.2999999999999996e-01 2.7066062473711714e+00 2.0719348779749261e+01 9.2128064837435524e+00 -1 5 0
818 444 1 4.1499999999999998e-01 3.6488333766047991e+00 2.0508119353533083e+01 1.2027345384718867e+01 -1 2 0
2745 444 1 4.1499999999999998e-01 3.0420941911474504e+00 2.2249825759215053e+01 1.4625414100871652e+01 1 -4 0
51 444 1 4.1499999999999998e-01 3.3340062104475625e+00 2.2608389558643140e+01 1.7985171061284387e+01 -1 -2 0
1689 444 1 4.1499999999999998e-01 3.5978255881797088e+00 2.0565634573435659e+01 1.9183340245236103e+01 4 -3 0
3182 444 4 0.0000000000000000e+00 3.4729999999999999e+00 2.7915800000000001e+01 0.0000000000000000e+00 0 0 0
3183 444 4 -7.4069999999999997e-02 3.4727700000000001e+00 2.7911269999999998e+01 3.5898800000000000e+00 0 0 0
3186 444 4 0.0000000000000000e+00 3.4729999999999999e+00 2.6098949999999999e+01 1.8169999999999999e+00 0 0 0
2126 444 1 4.1499999999999998e-01 3.6062601595547870e+00 2.7797609091187290e+01 6.2761277452449376e+00 1 4 0
2125 444 2 -8.2999999999999996e-01 2.8347506716802311e+00 2.7673615732796772e+01 6.8289665233794512e+00 1 4 0
2127 444 1 4.1499999999999998e-01 2.1008429490220393e+00 2.7649727223792762e+01 6.2149300647006473e+00 1 4 0
882 444 1 4.1499999999999998e-01 2.4294171765584940e+00 2.5194089822841523e+01 6.3548192832236507e+00 0 -3 0
219 444 1 4.1499999999999998e-01 2.2353842802926560e+00 2.6836911376195374e+01 1.3132126856796850e+01 2 2 0
1508 444 1 4.1499999999999998e-01 3.2663328350515668e+00 2.5241140881252665e+01 1.2252223725094561e+01 1 -4 0
2762 444 1 4.1499999999999998e-01 3.2266919368902918e+00 2.5440327558991967e+01 8.5609590466539451e+00 3 -3 0
2313 444 1 4.1499999999999998e-01 2.4059145258999872e+00 2.8380079727531133e+01 1.4596279086833539e+01 1 5 0
1507 444 2 -8.2999999999999996e-01 2.5053998476270070e+00 2.4660465095267305e+01 1.2246850408742551e+01 1 -4 0
1509 444 1 4.1499999999999998e-01 2.1872396433910257e+00 2.4690139654204117e+01 1.1344561126050785e+01 1 -4 0
541 444 2 -8.2999999999999996e-01 3.3815541612411950e+00 2.5492734351035530e+01 1.7581054293073759e+01 -3 0 0
543 444 1 4.1499999999999998e-01 3.9296923328508973e+00 2.6228042939627205e+01 1.7307012038371607e+01 -3 0 0
434 444 1 4.1499999999999998e-01 2.1912218493210456e+00 2.6495808992083830e+01 1.9266967533737745e+01 1 -1 0
1676 444 1 4.1499999999999998e-01 2.1477207245655987e+00 2.8609741668217410e+01 1.9182635478167334e+01 4 2 0
542 444 1 4.1499999999999998e-01 4.0011056858251726e+00 2.4785789255098731e+01 1.7761655280837861e+01 -3 0 0
3202 444 4 0.0000000000000000e+00 3.4729999999999999e+00 3.1549700000000001e+01 0.0000000000000000e+00 0 0 0
3203 444 4 -7.4069999999999997e-02 3.4759699999999998e+00 3.1561190000000000e+01 3.5970300000000002e+00 0 0 0
3206 444 4 0.0000000000000000e+00 3.4729999999999999e+00 2.9732749999999999e+01 1.8169999999999999e+00 0 0 0
736 444 2 -8.2999999999999996e-01 3.6475047489602530e+00 3.2071563350351497e+01 1.1367387311840481e+01 2 -1 0
737 444 1 4.1499999999999998e-01 3.7233283157655825e+00 3.1353972405588461e+01 1.0738462923682693e+01 2 -1 0
2312 444 1 4.1499999999999998e-01 2.5797704979404106e+00 2.9209076835966915e+01 1.5851043244924567e+01 1 5 0
738 444 1 4.1499999999999998e-01 2.9680957595982504e+00 3.1784977432077504e+01 1.1977718200522306e+01 2 -1 0
2311 444 2 -8.2999999999999996e-01 2.9578489263022822e+00 2.9058913396082346e+01 1.4984590693315694e+01 1 5 0
1466 444 1 4.1499999999999998e-01 2.0524838624269832e+00 2.8646030470157555e+01 8.1558915961321183e+00 5 1 0
1675 444 2 -8.2999999999999996e-01 2.1579988838822572e+00 2.9332270289824923e+01 1.8554878668607824e+01 4 2 0
2534 444 1 4.1499999999999998e-01 3.6011929909847802e+00 3.0127531908321018e+01 1.7888041545841400e+01 -2 0 0
3054 444 4 0.0000000000000000e+00 5.2898399999999999e+00 6.6205000000000003e-01 0.0000000000000000e+00 0 0 0
3055 444 4 -7.4069999999999997e-02 5.2838200000000004e+00 6.6525999999999996e-01 3.5934400000000002e+00 0 0 0
3057 444 4 0.0000000000000000e+00 5.2898399999999999e+00 2.4790000000000001e+00 1.8169999999999999e+00 0 0 0