LAMMPS data file via write_data, version 11 Aug 2017, timestep = 1000000

3570 atoms
13 atom types
2024 bonds
5 bond types
1018 angles
5 angle types
12 dihedrals
4 dihedral types
9 impropers
1 improper types

0.0000000000000000e+00 3.2704500000000003e+01 xlo xhi
0.0000000000000000e+00 3.2704500000000003e+01 ylo yhi
0.0000000000000000e+00 6.5000000000000000e+01 zlo zhi

Masses

1 1.0079
2 15.9994
3 39.0983
4 63.546
5 12.011
6 15.9994
7 1.0079
8 12.011
9 12.011
10 15.9994
11 15.9994
12 15.9994
13 1.0079

Bond Coeffs # harmonic

1 450 0.9572
2 570 1.229
3 450 1.364
4 570 1.229
5 553 0.945

Angle Coeffs # harmonic

1 100 123.32
2 85 124
3 55 104.52
4 35 113
5 100 123.32

Dihedral Coeffs # charmm

1 0.922 1 180 0
2 3.741 2 0 0
3 0.922 1 0 0
4 3.741 2 180 0

Improper Coeffs # umbrella

1 21 0

Atoms # full

3049 444 4 -7.4069999999999997e-02 1.6580800000000000e+00 6.4029999999999998e-01 3.5968599999999999e+00 0 0 0
3050 444 4 0.0000000000000000e+00 3.4729999999999999e+00 6.6205000000000003e-01 1.8169999999999999e+00 0 0 0
3051 444 4 0.0000000000000000e+00 1.6560500000000000e+00 2.4790000000000001e+00 1.8169999999999999e+00 0 0 0
3054 444 4 0.0000000000000000e+00 5.2898399999999999e+00 6.6205000000000003e-01 0.0000000000000000e+00 0 0 0
3055 444 4 -7.4069999999999997e-02 5.2596400000000001e+00 6.4412999999999998e-01 3.5971199999999999e+00 0 0 0
3057 444 4 0.0000000000000000e+00 5.2898399999999999e+00 2.4790000000000001e+00 1.8169999999999999e+00 0 0 0
3060 444 4 0.0000000000000000e+00 1.6560500000000000e+00 6.6205000000000003e-01 0.0000000000000000e+00 0 0 0
3064 444 4 0.0000000000000000e+00 3.4729999999999999e+00 6.1128000000000000e+00 0.0000000000000000e+00 0 0 0
3065 444 4 -7.4069999999999997e-02 3.4770799999999999e+00 6.1200299999999999e+00 3.5940200000000000e+00 0 0 0
3066 444 4 0.0000000000000000e+00 1.6560500000000000e+00 4.2959500000000004e+00 0.0000000000000000e+00 0 0 0
3067 444 4 -7.4069999999999997e-02 1.6709700000000001e+00 4.2966100000000003e+00 3.5721200000000000e+00 0 0 0
3068 444 4 0.0000000000000000e+00 3.4729999999999999e+00 4.2959500000000004e+00 1.8169999999999999e+00 0 0 0
3069 444 4 0.0000000000000000e+00 1.6560500000000000e+00 6.1128000000000000e+00 1.8169999999999999e+00 0 0 0
3074 444 4 -7.4069999999999997e-02 3.4545900000000000e+00 2.4505900000000000e+00 3.5969500000000001e+00 0 0 0
3075 444 4 0.0000000000000000e+00 3.4729999999999999e+00 2.4790000000000001e+00 0.0000000000000000e+00 0 0 0
3076 444 4 0.0000000000000000e+00 5.2898399999999999e+00 4.2959500000000004e+00 0.0000000000000000e+00 0 0 0
3077 444 4 0.0000000000000000e+00 5.2898399999999999e+00 6.1128000000000000e+00 1.8169999999999999e+00 0 0 0
3086 444 4 0.0000000000000000e+00 1.6560500000000000e+00 7.9297500000000003e+00 0.0000000000000000e+00 0 0 0
3087 444 4 -7.4069999999999997e-02 1.6545600000000000e+00 7.9268200000000002e+00 3.5887799999999999e+00 0 0 0
3088 444 4 0.0000000000000000e+00 3.4729999999999999e+00 7.9297500000000003e+00 1.8169999999999999e+00 0 0 0
3092 444 4 0.0000000000000000e+00 5.2898399999999999e+00 7.9297500000000003e+00 0.0000000000000000e+00 0 0 0
3093 444 4 -7.4069999999999997e-02 5.2720900000000004e+00 7.9471400000000001e+00 3.5714600000000001e+00 0 0 0
3101 444 4 -7.4069999999999997e-02 5.2420299999999997e+00 4.2577800000000003e+00 3.5812499999999998e+00 0 0 0
2011 444 2 -8.2999999999999996e-01 1.6492278282658785e+00 2.8343032718796279e+00 6.8324002738757210e+00 0 4 0
2012 444 1 4.1499999999999998e-01 1.6303930958603101e+00 1.9064984218474150e+00 7.0670395002289350e+00 0 4 0
2013 444 1 4.1499999999999998e-01 7.2751635811775084e-01 3.0833337260524152e+00 6.7641081071993581e+00 0 4 0
2535 444 1 4.1499999999999998e-01 2.3027899985429472e+00 4.7199082669758212e+00 6.9915562981562935e+00 0 2 0
2533 444 2 -8.2999999999999996e-01 2.5321367902216219e+00 5.5569098223177118e+00 7.3953644226155637e+00 0 2 0
2534 444 1 4.1499999999999998e-01 3.4314448251568792e+00 5.7216772534686333e+00 7.1119401766535031e+00 0 2 0
998 444 1 4.1499999999999998e-01 3.5076766547910392e+00 2.9665323166741420e+00 6.6641152887880315e+00 0 -3 0
1487 444 1 4.1499999999999998e-01 6.7479601281335977e-01 5.2450641027868254e+00 7.8295963910000470e+00 2 4 0
997 444 2 -8.2999999999999996e-01 4.4519646287919912e+00 2.9224430669531349e+00 6.8144793273591366e+00 0 -3 0
2595 444 1 4.1499999999999998e-01 2.8530022647156223e+00 5.6622561429363460e-01 6.1247076375458365e+00 -3 5 0
2593 444 2 -8.2999999999999996e-01 2.7552680146453419e+00 1.1786403197007306e-01 6.9647384374133159e+00 -3 5 0
999 444 1 4.1499999999999998e-01 4.7627337573024597e+00 2.2607595609661746e+00 6.1965557692446440e+00 0 -3 0
2862 444 1 4.1499999999999998e-01 3.3611629522919007e+00 7.9995241017040550e+00 5.9246645422388307e+00 -2 1 0
1232 444 1 4.1499999999999998e-01 5.2895610630928109e+00 4.6146470088330078e+00 7.1758749478759789e+00 -2 5 0
1231 444 2 -8.2999999999999996e-01 5.4487540084176116e+00 5.5292576241823683e+00 6.9426853447236683e+00 -2 5 0
2860 444 2 -8.2999999999999996e-01 3.6499218108280007e+00 8.1228496559908550e+00 6.8288995153222709e+00 -2 1 0
2627 444 1 4.1499999999999998e-01 1.3523274000473862e-01 4.0836256360696872e+00 1.5617616181816308e+01 -1 2 0
2284 444 2 -8.2999999999999996e-01 3.1107372456858684e-02 1.9350578962496985e+00 1.0561142625982420e+01 1 -1 0
1975 444 2 -8.2999999999999996e-01 8.0035849874904597e-01 4.0728543890852285e+00 1.2463836283365584e+01 -6 2 0
1630 444 2 -8.2999999999999996e-01 1.0153884264965023e+00 3.6920437346506896e-01 1.3975106277305175e+01 -3 1 0
713 444 1 4.1499999999999998e-01 2.5242350228167636e+00 3.8876169675534671e+00 1.5327330794340069e+01 -3 1 0
712 444 2 -8.2999999999999996e-01 2.9384729642470861e+00 3.7692404947494023e+00 1.4472563664197077e+01 -3 1 0
1555 444 2 -8.2999999999999996e-01 2.5865846686275349e+00 3.3036233166660423e+00 9.5704049360007701e+00 4 4 0
745 444 2 -8.2999999999999996e-01 9.5104614891741268e-01 6.4151881750249062e+00 1.0802304423048220e+01 3 -1 0
746 444 1 4.1499999999999998e-01 1.5745329593184878e+00 6.8868814535368790e+00 1.0250035106671458e+01 3 -1 0
468 444 1 4.1499999999999998e-01 2.8779176006916831e+00 7.1359853109287084e+00 8.5214518293720491e+00 2 -1 0
1557 444 1 4.1499999999999998e-01 1.6761799819611565e+00 3.0237431731519857e+00 9.6656026039170548e+00 4 4 0
466 444 2 -8.2999999999999996e-01 2.8668511157071714e+00 7.5058263572185648e+00 9.4042467770769917e+00 2 -1 0
1976 444 1 4.1499999999999998e-01 9.0470608887181658e-01 4.7313251004113877e+00 1.1776987833592111e+01 -6 2 0
1556 444 1 4.1499999999999998e-01 2.5294270592712875e+00 4.1840044606950171e+00 9.1990640000199662e+00 4 4 0
714 444 1 4.1499999999999998e-01 2.2185472544489295e+00 3.8376263746071033e+00 1.3845456570316797e+01 -3 1 0
348 444 1 4.1499999999999998e-01 4.6338628478863715e+00 3.1620668154614506e+00 9.9107292583427995e+00 -1 2 0
1211 444 1 4.1499999999999998e-01 3.2019093192935522e+00 2.1681718503331302e+00 1.4527352037582096e+01 5 0 0
467 444 1 4.1499999999999998e-01 3.7130535075599358e+00 7.2599882920762395e+00 9.7780608491351764e+00 2 -1 0
1210 444 2 -8.2999999999999996e-01 3.6182593875381461e+00 1.3064355260572564e+00 1.4510178783651707e+01 5 0 0
346 444 2 -8.2999999999999996e-01 5.3703297539079333e+00 3.4513769440088415e+00 9.3720753955049609e+00 -1 2 0
795 444 1 4.1499999999999998e-01 4.6520660014269604e+00 4.0609501344407137e+00 1.3828691856515491e+01 0 -4 0
1977 444 1 4.1499999999999998e-01 7.2063577672835155e-01 3.2440643277489216e+00 1.1991625075193934e+01 -6 2 0
2285 444 1 4.1499999999999998e-01 3.2945701650821235e-01 1.0549061146407095e+00 1.0331900166452877e+01 1 -1 0
1963 444 2 -8.2999999999999996e-01 3.6474104002196710e+00 7.5359247255494155e-01 9.5689754849522082e+00 2 1 0
347 444 1 4.1499999999999998e-01 5.0953691637260867e+00 3.2714597638964307e+00 8.4730435335163357e+00 -1 2 0
1965 444 1 4.1499999999999998e-01 3.4159707591307682e+00 1.6702899621159308e+00 9.4195297739912718e+00 2 1 0
1212 444 1 4.1499999999999998e-01 4.4033521732254979e+00 1.4298141655683823e+00 1.3976663215741256e+01 5 0 0
1964 444 1 4.1499999999999998e-01 3.6752470664802042e+00 3.6732400305698082e-01 8.6936159317648229e+00 2 1 0
747 444 1 4.1499999999999998e-01 1.5810934532279589e-01 6.9509245962882469e+00 1.0780636357987889e+01 3 -1 0
1268 444 1 4.1499999999999998e-01 5.0069301448785257e+00 5.4351765857940588e+00 1.0693655723567694e+01 -3 0 0
1631 444 1 4.1499999999999998e-01 1.9431090567147620e+00 4.4944668342664496e-01 1.3753457799321144e+01 -3 1 0
1267 444 2 -8.2999999999999996e-01 5.0333680686659283e+00 6.3058662358512576e+00 1.0296878106649716e+01 -3 0 0
1269 444 1 4.1499999999999998e-01 5.3748414279080663e+00 6.1574789512385131e+00 9.4150565827241053e+00 -3 0 0
793 444 2 -8.2999999999999996e-01 5.4486582054817259e+00 4.4739211844562208e+00 1.3495333787390276e+01 0 -4 0
2628 444 1 4.1499999999999998e-01 1.6688152061573153e-01 3.4867049642031751e+00 1.7008507744444099e+01 -1 2 0
1859 444 1 4.1499999999999998e-01 3.3241087224146471e+00 7.0343615692253714e-01 1.6251062923842071e+01 3 4 0
2350 444 2 -8.2999999999999996e-01 9.7078196631302138e-01 3.5034895931386365e+00 2.1337293157537697e+01 5 -3 0
1858 444 2 -8.2999999999999996e-01 3.3528530342273202e+00 5.0912614007314405e-01 1.7187892806774105e+01 3 4 0
992 444 1 4.1499999999999998e-01 1.9912066227610308e+00 6.5873946625344173e+00 1.8294466496425603e+01 1 2 0
699 444 1 4.1499999999999998e-01 3.7900119084084771e-01 6.5711722029383246e-01 2.3341946902650136e+01 2 3 0
1900 444 2 -8.2999999999999996e-01 3.6296408438133315e-01 6.6792224794139710e+00 1.9606301479054462e+01 4 -2 0
1860 444 1 4.1499999999999998e-01 4.1666160219082053e+00 9.1137955554661076e-01 1.7491561313633785e+01 3 4 0
1901 444 1 4.1499999999999998e-01 1.3944027659924976e-01 7.6028659980781459e+00 1.9720981990948967e+01 4 -2 0
376 444 2 -8.2999999999999996e-01 3.7400113355785032e+00 8.0317595117349700e+00 2.0460205042781833e+01 0 5 0
2352 444 1 4.1499999999999998e-01 4.9764297571512894e-01 3.6093836555452246e+00 2.2162616530208986e+01 5 -3 0
2626 444 2 -8.2999999999999996e-01 7.3650050489946228e-01 3.7724414057210454e+00 1.6294280186214280e+01 -1 2 0
991 444 2 -8.2999999999999996e-01 2.7955711676764761e+00 6.1709469657828926e+00 1.7984949014992129e+01 1 2 0
1764 444 1 4.1499999999999998e-01 4.0023999131888042e+00 3.0287449709067507e+00 1.8621326488935253e+01 -3 -2 0
993 444 1 4.1499999999999998e-01 2.5654834869493288e+00 5.2468675808799974e+00 1.7888155869818636e+01 1 2 0
1568 444 1 4.1499999999999998e-01 3.1753924568255822e+00 1.3407992885392468e+00 2.2606637847579204e+01 -1 -2 0
1619 444 1 4.1499999999999998e-01 4.7261736157154628e+00 6.9588062859721802e+00 1.8110190153049288e+01 -3 -1 0
1763 444 1 4.1499999999999998e-01 2.5063390836342223e+00 2.8265894023262566e+00 1.8508055743346159e+01 -3 -2 0
1762 444 2 -8.2999999999999996e-01 3.1651022890977241e+00 3.4030345996854754e+00 1.8895320574289233e+01 -3 -2 0
1753 444 2 -8.2999999999999996e-01 1.9690794253254393e+00 6.9885718795057770e+00 2.2958095967929211e+01 -1 -1 0
8 444 3 1.0000000000000000e+00 3.0733857583986173e+00 5.3627738482968805e+00 2.0864022361768097e+01 0 1 0
1755 444 1 4.1499999999999998e-01 2.3205497967766009e+00 6.8257336081063036e+00 2.3833415376519632e+01 -1 -1 0
2647 444 2 -8.2999999999999996e-01 4.2110865280098748e+00 4.9904041799963164e+00 2.3496632483393512e+01 3 -3 0
1567 444 2 -8.2999999999999996e-01 2.5987551056078764e+00 9.7853651116557594e-01 2.1933966613716215e+01 -1 -2 0
455 444 1 4.1499999999999998e-01 4.4045190366686287e+00 2.9421040300647694e+00 2.3374079534406565e+01 3 0 0
1569 444 1 4.1499999999999998e-01 3.1763653889423180e+00 4.5319106556739763e-01 2.1380242534252670e+01 -1 -2 0
1754 444 1 4.1499999999999998e-01 1.3447891638855933e+00 7.7039559091695615e+00 2.3079418058228434e+01 -1 -1 0
697 444 2 -8.2999999999999996e-01 2.4048749469254829e-01 5.9612445448223861e-01 2.4287106459905377e+01 2 3 0
2351 444 1 4.1499999999999998e-01 1.2850036553327626e+00 2.5995089845754684e+00 2.1355082185486335e+01 5 -3 0
2649 444 1 4.1499999999999998e-01 5.0145746969250027e+00 5.4873744873635584e+00 2.3342817335767265e+01 3 -3 0
2648 444 1 4.1499999999999998e-01 3.6606907752501301e+00 5.5782014186270983e+00 2.4014117534846832e+01 3 -3 0
454 444 2 -8.2999999999999996e-01 4.5078195679572017e+00 2.0275504989558337e+00 2.3637050474509167e+01 3 0 0
1204 444 2 -8.2999999999999996e-01 2.8828514078441723e+00 6.6389498997644907e+00 2.5387998014970954e+01 0 7 0
839 444 1 4.1499999999999998e-01 1.5786407108987817e+00 2.4652931883845417e+00 3.1474868337063466e+01 1 3 0
1206 444 1 4.1499999999999998e-01 2.3982465376592592e+00 5.9916981076694400e+00 2.5900301720050866e+01 0 7 0
2346 444 1 4.1499999999999998e-01 2.7300953508780053e+00 3.0407230605668727e+00 2.9001303887419446e+01 -5 0 0
2396 444 1 4.1499999999999998e-01 4.4559470958193714e-01 5.8449105716319112e+00 2.9176123897799201e+01 1 -3 0
2345 444 1 4.1499999999999998e-01 2.9613487661748605e+00 3.2713588492772896e+00 3.0479554261614407e+01 -5 0 0
2397 444 1 4.1499999999999998e-01 1.7554380735100439e+00 5.3369808272343944e+00 2.9740227432068327e+01 1 -3 0
784 444 2 -8.2999999999999996e-01 1.1383164085586326e+00 5.0967781430986401e+00 2.6687282936478727e+01 1 3 0
1205 444 1 4.1499999999999998e-01 3.2522339277294390e+00 7.2338398077294483e+00 2.6040603856545037e+01 0 7 0
1951 444 2 -8.2999999999999996e-01 1.6321750059476903e+00 1.6920970011627909e+00 2.8245673022521260e+01 -2 6 0
838 444 2 -8.2999999999999996e-01 2.4111638860740059e+00 2.5550377430189681e+00 3.1938639900853651e+01 1 3 0
1807 444 2 -8.2999999999999996e-01 3.0142163657675409e+00 7.9361991262239098e+00 2.8054633840931750e+01 3 -1 0
2344 444 2 -8.2999999999999996e-01 2.8986420481932491e+00 3.7312361573660051e+00 2.9642408801129456e+01 -5 0 0
1809 444 1 4.1499999999999998e-01 2.3276161033793406e+00 7.5925816765950147e+00 2.8626245524591468e+01 3 -1 0
311 444 1 4.1499999999999998e-01 4.2671770622190328e+00 6.4695476156277163e+00 2.8391200926055252e+01 1 -2 0
456 444 1 4.1499999999999998e-01 5.0340150827806900e+00 2.0654653647341474e+00 2.4435745348779371e+01 3 0 0
2193 444 1 4.1499999999999998e-01 3.4353698234467873e+00 6.4666770439992349e-01 2.6797791767731130e+01 -4 0 0
1953 444 1 4.1499999999999998e-01 1.8958803740074730e+00 8.3311209598439895e-01 2.8575577072745020e+01 -2 6 0
1634 444 1 4.1499999999999998e-01 4.0386416874531628e-01 8.0420751403174915e+00 3.1834296273399687e+01 -1 2 0
1635 444 1 4.1499999999999998e-01 1.1809480804148451e+00 7.4608201029421810e+00 3.0672324297231956e+01 -1 2 0
2395 444 2 -8.2999999999999996e-01 1.3305164420322872e+00 6.1273707653493048e+00 2.9407125099251708e+01 1 -3 0
2573 444 1 4.1499999999999998e-01 2.9139829254822094e+00 2.4230541892146586e+00 2.5199107243341810e+01 2 2 0
312 444 1 4.1499999999999998e-01 3.9865987416027253e+00 5.0884571373059790e+00 2.8944157001715286e+01 1 -2 0
786 444 1 4.1499999999999998e-01 1.4003848982314226e+00 4.8893126450199391e+00 2.7584227814848205e+01 1 3 0
2572 444 2 -8.2999999999999996e-01 2.5299121603720964e+00 1.8294647344882311e+00 2.5844377296680854e+01 2 2 0
2574 444 1 4.1499999999999998e-01 1.8793712461253858e+00 1.3285266911603988e+00 2.5352350665920639e+01 2 2 0
1952 444 1 4.1499999999999998e-01 1.8954165237026572e+00 1.6868940233241259e+00 2.7325395966416107e+01 -2 6 0
310 444 2 -8.2999999999999996e-01 4.6858953650434660e+00 5.6290179110499370e+00 2.8576718847304047e+01 1 -2 0
2429 444 1 4.1499999999999998e-01 5.5427694633749525e-02 2.5618691630546921e+00 2.4394908438712942e+01 -1 0 0
785 444 1 4.1499999999999998e-01 1.9171546315895441e-01 5.2293115813414239e+00 2.6738406256853256e+01 1 3 0
2430 444 1 4.1499999999999998e-01 8.5356287197252009e-02 4.0723392753559882e+00 2.4492272108452418e+01 -1 0 0
3084 444 4 0.0000000000000000e+00 3.4729999999999999e+00 9.7467000000000006e+00 0.0000000000000000e+00 0 0 0
3085 444 4 -7.4069999999999997e-02 3.4521000000000002e+00 9.7466600000000003e+00 3.5965099999999999e+00 0 0 0
3089 444 4 0.0000000000000000e+00 1.6560500000000000e+00 9.7467000000000006e+00 1.8169999999999999e+00 0 0 0
3095 444 4 0.0000000000000000e+00 5.2898399999999999e+00 9.7467000000000006e+00 1.8169999999999999e+00 0 0 0
3107 444 4 -7.4069999999999997e-02 1.6580800000000000e+00 1.1541800000000000e+01 3.5968599999999999e+00 0 0 0
3108 444 4 0.0000000000000000e+00 3.4729999999999999e+00 1.1563549999999999e+01 1.8169999999999999e+00 0 0 0
3109 444 4 0.0000000000000000e+00 1.6560500000000000e+00 1.3380500000000000e+01 1.8169999999999999e+00 0 0 0
3112 444 4 0.0000000000000000e+00 5.2898399999999999e+00 1.1563549999999999e+01 0.0000000000000000e+00 0 0 0
3113 444 4 -7.4069999999999997e-02 5.2596400000000001e+00 1.1545629999999999e+01 3.5971199999999999e+00 0 0 0
3115 444 4 0.0000000000000000e+00 5.2898399999999999e+00 1.3380500000000000e+01 1.8169999999999999e+00 0 0 0
3118 444 4 0.0000000000000000e+00 1.6560500000000000e+00 1.1563549999999999e+01 0.0000000000000000e+00 0 0 0
3124 444 4 0.0000000000000000e+00 1.6560500000000000e+00 1.5197450000000000e+01 0.0000000000000000e+00 0 0 0
3125 444 4 -7.4069999999999997e-02 1.6709700000000001e+00 1.5198110000000000e+01 3.5721200000000000e+00 0 0 0
3126 444 4 0.0000000000000000e+00 3.4729999999999999e+00 1.5197450000000000e+01 1.8169999999999999e+00 0 0 0
3132 444 4 -7.4069999999999997e-02 3.4545900000000000e+00 1.3352090000000000e+01 3.5969500000000001e+00 0 0 0
3133 444 4 0.0000000000000000e+00 3.4729999999999999e+00 1.3380500000000000e+01 0.0000000000000000e+00 0 0 0
3134 444 4 0.0000000000000000e+00 5.2898399999999999e+00 1.5197450000000000e+01 0.0000000000000000e+00 0 0 0
3159 444 4 -7.4069999999999997e-02 5.2420299999999997e+00 1.5159280000000001e+01 3.5812499999999998e+00 0 0 0
931 444 2 -8.2999999999999996e-01 5.6634336600378932e-01 9.0618659207022745e+00 6.9214393790742106e+00 0 4 0
908 444 1 4.1499999999999998e-01 2.4946180630801162e+00 1.4058936758347258e+01 6.3284494332687480e+00 -1 -2 0
909 444 1 4.1499999999999998e-01 3.4274639847545050e+00 1.2871639647821654e+01 6.4380816048931235e+00 -1 -2 0
907 444 2 -8.2999999999999996e-01 2.9737083545512686e+00 1.3529006135327016e+01 6.9655348980075740e+00 -1 -2 0
2760 444 1 4.1499999999999998e-01 1.4573760712259443e+00 1.2149973596797912e+01 7.1086978593417403e+00 2 -2 0
933 444 1 4.1499999999999998e-01 5.2259786449115997e-01 9.9865996520403417e+00 6.6781574622173441e+00 0 4 0
932 444 1 4.1499999999999998e-01 1.4032537064729060e+00 8.7601189582034831e+00 6.5682228452535432e+00 0 4 0
176 444 1 4.1499999999999998e-01 4.1499339102031509e+00 1.0747908899889875e+01 6.0438099120560569e+00 2 0 0
2759 444 1 4.1499999999999998e-01 3.6477040669171407e-01 1.1923819445782440e+01 6.0854862822759896e+00 2 -2 0
175 444 2 -8.2999999999999996e-01 4.6216547295724446e+00 1.0805519162069650e+01 6.8747085419881824e+00 2 0 0
177 444 1 4.1499999999999998e-01 5.1332126591636644e+00 9.9975760803465334e+00 6.9167697824675898e+00 2 0 0
2758 444 2 -8.2999999999999996e-01 5.3269315560523789e-01 1.1916198352237966e+01 7.0278108322773143e+00 2 -2 0
2861 444 1 4.1499999999999998e-01 4.5960212868511094e+00 8.2524770523112885e+00 6.7631363296509557e+00 -2 1 0
1266 444 1 4.1499999999999998e-01 3.0694621200943377e+00 9.3993313568496220e+00 9.1228317089685458e+00 -1 1 0
1265 444 1 4.1499999999999998e-01 3.3335192943533141e+00 1.0512910203477340e+01 8.1318165080643752e+00 -1 1 0
2128 444 2 -8.2999999999999996e-01 3.2455824116973009e-01 8.7955501458601599e+00 9.6198374571436869e+00 -3 0 0
1394 444 1 4.1499999999999998e-01 3.8991717182713520e-01 1.2237999916674582e+01 8.7308061508663197e+00 1 0 0
439 444 2 -8.2999999999999996e-01 3.4499037354965636e+00 8.6721232210237726e+00 1.2863838456340885e+01 -6 -2 0
2130 444 1 4.1499999999999998e-01 1.1829037124890489e+00 9.1894253730952151e+00 9.4638311951939897e+00 -3 0 0
2694 444 1 4.1499999999999998e-01 1.9635892355963493e+00 1.2965371629574944e+01 1.1765809434074127e+01 0 -1 0
255 444 1 4.1499999999999998e-01 4.4204098153990383e+00 1.2824311426833198e+01 9.8311146899674196e+00 2 1 0
253 444 2 -8.2999999999999996e-01 4.5986074509497552e+00 1.2107246125821030e+01 1.0439633542234802e+01 2 1 0
2388 444 1 4.1499999999999998e-01 5.0705870134253743e+00 1.0178622201969739e+01 1.6180268846465765e+01 1 3 0
960 444 1 4.1499999999999998e-01 2.7218073256825712e+00 1.4887666505866417e+01 1.0236780293225365e+01 0 0 0
2440 444 2 -8.2999999999999996e-01 2.3072460496220066e+00 1.4769682852667067e+01 1.2040046744927496e+01 0 4 0
286 444 2 -8.2999999999999996e-01 1.1953542495483549e+00 1.1037234064807537e+01 1.4273698716702283e+01 0 0 0
210 444 1 4.1499999999999998e-01 2.7811057355250357e+00 1.0636056212218721e+01 1.5387596804586982e+01 -2 -2 0
441 444 1 4.1499999999999998e-01 2.8620452299645702e+00 9.3471342249317892e+00 1.3202976137315781e+01 -6 -2 0
288 444 1 4.1499999999999998e-01 1.4881451102290817e+00 1.1401366053864786e+01 1.3438286690063203e+01 0 0 0
1220 444 1 4.1499999999999998e-01 4.9361838055980973e+00 1.5441930062674995e+01 9.3119787317745200e+00 -3 3 0
2129 444 1 4.1499999999999998e-01 5.1691762359962319e-02 8.4675851317557225e+00 8.7629738163211552e+00 -3 0 0
2692 444 2 -8.2999999999999996e-01 1.5229556225001775e+00 1.2128679731224320e+01 1.1914202256923954e+01 0 -1 0
843 444 1 4.1499999999999998e-01 8.3974376801035078e-01 1.5583909655172993e+01 8.2408732419946755e+00 7 -1 0
2693 444 1 4.1499999999999998e-01 1.0379184650076998e+00 1.1966079253760423e+01 1.1105170816275658e+01 0 -1 0
2442 444 1 4.1499999999999998e-01 2.2055740612836940e+00 1.5719672377246038e+01 1.1981603556109839e+01 0 4 0
959 444 1 4.1499999999999998e-01 3.0570561673808796e+00 1.4470956920434919e+01 8.8204975462774513e+00 0 0 0
2441 444 1 4.1499999999999998e-01 3.0435447941303955e+00 1.4643494479025673e+01 1.2638521733520735e+01 0 4 0
208 444 2 -8.2999999999999996e-01 3.4276895664096578e+00 1.0224457118443285e+01 1.5960961763910516e+01 -2 -2 0
958 444 2 -8.2999999999999996e-01 3.4464083500197540e+00 1.4840234198012627e+01 9.6131332279350801e+00 0 0 0
254 444 1 4.1499999999999998e-01 3.9254930824234333e+00 1.1454945344924534e+01 1.0245589326966350e+01 2 1 0
841 444 2 -8.2999999999999996e-01 2.1437620104507801e-01 1.5054164984722492e+01 8.7353605717907445e+00 7 -1 0
287 444 1 4.1499999999999998e-01 7.6601513672763477e-01 1.1768872991456396e+01 1.4717099446649732e+01 0 0 0
576 444 1 4.1499999999999998e-01 7.2211731866204332e-02 9.4968030842718694e+00 1.3982474658785952e+01 5 1 0
2175 444 1 4.1499999999999998e-01 5.0992371141774164e+00 9.3489212045847392e+00 1.3117090457332086e+01 -4 3 0
1259 444 1 4.1499999999999998e-01 5.2723629911364851e+00 1.2216905033522361e+01 1.2108396922342310e+01 0 -2 0
1264 444 2 -8.2999999999999996e-01 2.8335252657322743e+00 1.0304792428124079e+01 8.9210728710129281e+00 -1 1 0
539 444 1 4.1499999999999998e-01 4.5779054930083376e+00 1.2233957509823702e+01 1.5113469749282167e+01 2 2 0
538 444 2 -8.2999999999999996e-01 5.0508715645598388e+00 1.2909046381836975e+01 1.5600080520923754e+01 2 2 0
1393 444 2 -8.2999999999999996e-01 1.9495913637901971e-01 1.2518341629532260e+01 9.6250273492355838e+00 1 0 0
1395 444 1 4.1499999999999998e-01 1.1602122776172463e-01 1.3470466193527010e+01 9.5662119111708268e+00 1 0 0
2945 444 1 4.1499999999999998e-01 1.2555720154477967e-01 1.3484019056907080e+01 1.2359940851326913e+01 0 -1 0
440 444 1 4.1499999999999998e-01 2.9752752881544078e+00 8.2891172609380597e+00 1.2126094507080085e+01 -6 -2 0
423 444 1 4.1499999999999998e-01 1.3360229712889988e+00 1.1889872791283015e+01 2.3444316996418394e+01 -1 -3 0
388 444 2 -8.2999999999999996e-01 2.5330967141588290e+00 1.3272619496690389e+01 2.1575251504855839e+01 2 3 0
392 444 1 4.1499999999999998e-01 2.2489020544994343e-02 9.8022772556681979e+00 1.9865139941291453e+01 -2 -3 0
421 444 2 -8.2999999999999996e-01 1.2668071098512776e+00 1.0964275610128739e+01 2.3210413648424016e+01 -1 -3 0
378 444 1 4.1499999999999998e-01 4.2234097361689651e+00 8.6836895173544590e+00 1.9952715538783838e+01 0 5 0
2225 444 1 4.1499999999999998e-01 5.1673937061889209e-03 9.7303276725520984e+00 2.3140508344621669e+01 -5 0 0
820 444 2 -8.2999999999999996e-01 1.2195901966260960e+00 1.1278379161481320e+01 1.9857077452081757e+01 4 -1 0
822 444 1 4.1499999999999998e-01 9.0113303422638114e-01 1.1512984195194067e+01 2.0728729851532346e+01 4 -1 0
2843 444 1 4.1499999999999998e-01 3.6485345701080090e+00 1.1690660970103592e+01 2.1928693041736711e+01 3 -3 0
2660 444 1 4.1499999999999998e-01 4.9410781450443914e-01 9.7502885937961086e+00 1.7003895311689227e+01 -3 -2 0
469 444 2 -8.2999999999999996e-01 2.5088908196590824e+00 1.5771673573657196e+01 2.3564708136960324e+01 2 0 0
1143 444 1 4.1499999999999998e-01 2.5152415883049133e+00 8.8035824069293795e+00 1.8746806741975178e+01 -2 1 0
1208 444 1 4.1499999999999998e-01 2.1896401747762075e+00 1.4357575176105650e+01 1.6329800634583609e+01 0 3 0
1207 444 2 -8.2999999999999996e-01 1.8092234528916078e+00 1.3609358627037171e+01 1.6789895500695224e+01 0 3 0
1141 444 2 -8.2999999999999996e-01 2.2521028511937722e+00 9.5028277550615847e+00 1.8148437215341826e+01 -2 1 0
1837 444 2 -8.2999999999999996e-01 3.9923849024342788e+00 1.2523906770911227e+01 1.8312446295081422e+01 -4 0 0
1209 444 1 4.1499999999999998e-01 2.5289131288752524e+00 1.3259349223848211e+01 1.7315036148521934e+01 0 3 0
422 444 1 4.1499999999999998e-01 2.1507173949654903e+00 1.0719126744732113e+01 2.2936851156089453e+01 -1 -3 0
209 444 1 4.1499999999999998e-01 2.9162724191953311e+00 9.8880568158751760e+00 1.6696841634656447e+01 -2 -2 0
377 444 1 4.1499999999999998e-01 3.4701236821050818e+00 8.4962344059503003e+00 2.1252452181864523e+01 0 5 0
1838 444 1 4.1499999999999998e-01 4.4862723933199513e+00 1.2758818273658536e+01 1.7526874178991353e+01 -4 0 0
1142 444 1 4.1499999999999998e-01 1.9313518752923058e+00 1.0200103726497455e+01 1.8720414615772359e+01 -2 1 0
1839 444 1 4.1499999999999998e-01 4.6376216446625262e+00 1.2552001746098611e+01 1.9018924928902713e+01 -4 0 0
390 444 1 4.1499999999999998e-01 2.5982404958982310e+00 1.3853651609355349e+01 2.0817366281287661e+01 2 3 0
2842 444 2 -8.2999999999999996e-01 3.7554804085899209e+00 1.0808312840554548e+01 2.2284019161727816e+01 3 -3 0
471 444 1 4.1499999999999998e-01 3.3274810650014635e+00 1.5803093199036558e+01 2.4059839085240284e+01 2 0 0
2844 444 1 4.1499999999999998e-01 4.6091922879952527e+00 1.0825636131618641e+01 2.2716578906354993e+01 3 -3 0
821 444 1 4.1499999999999998e-01 1.9074787248525700e+00 1.1917951459164144e+01 1.9672716196737596e+01 4 -1 0
1773 444 1 4.1499999999999998e-01 1.7271968497555434e-01 1.3776813330715557e+01 1.7912767659702013e+01 5 -3 0
389 444 1 4.1499999999999998e-01 2.5767177088346749e+00 1.3858291881861227e+01 2.2331106739907028e+01 2 3 0
1483 444 2 -8.2999999999999996e-01 7.1274916045189196e-01 1.3679485959111460e+01 2.4211561076795153e+01 5 1 0
1484 444 1 4.1499999999999998e-01 8.7517567711015787e-01 1.4383815307064193e+01 2.3584050085903840e+01 5 1 0
1530 444 1 4.1499999999999998e-01 5.4090041061098901e+00 9.0551007308560525e+00 3.0858509865873948e+01 -2 -4 0
962 444 1 4.1499999999999998e-01 4.5315164037951057e+00 8.4373914307225970e+00 2.8435150151438279e+01 5 -4 0
1527 444 1 4.1499999999999998e-01 2.0055323359523858e-01 1.4510024122558615e+01 2.7488176782078149e+01 0 4 0
1808 444 1 4.1499999999999998e-01 2.7758685186777354e+00 8.8530710152399745e+00 2.7917632827906502e+01 3 -1 0
1347 444 1 4.1499999999999998e-01 5.7494706397698414e-01 1.6292910831535327e+01 2.5918891817229220e+01 1 -5 0
689 444 1 4.1499999999999998e-01 4.1314586562370907e+00 1.2838270482103212e+01 2.7198437493609060e+01 -1 -3 0
688 444 2 -8.2999999999999996e-01 3.5408466561348888e+00 1.2429641580006345e+01 2.6565640099264233e+01 -1 -3 0
2599 444 2 -8.2999999999999996e-01 3.1983872885354009e-01 1.1215861146860238e+01 3.2092850149398373e+01 -2 -1 0
434 444 1 4.1499999999999998e-01 4.7249017788544307e+00 1.1429024489469754e+01 3.0164823642743542e+01 -2 2 0
1713 444 1 4.1499999999999998e-01 1.7209559912828132e+00 1.2323456579745462e+01 2.9483141049034931e+01 1 -1 0
129 444 1 4.1499999999999998e-01 3.0665492979797317e+00 1.4254025608210895e+01 3.0228546536838635e+01 2 2 0
1711 444 2 -8.2999999999999996e-01 9.9416223448324670e-01 1.1702053189178137e+01 2.9440008220373386e+01 1 -1 0
1010 444 1 4.1499999999999998e-01 5.0982063062349736e+00 1.5005927357612103e+01 3.2072994416581032e+01 4 3 0
1598 444 1 4.1499999999999998e-01 3.1369966074595910e+00 1.0384880804363801e+01 3.1527265742849401e+01 -1 0 0
1712 444 1 4.1499999999999998e-01 6.4199740077024403e-01 1.1682506798489575e+01 3.0329856362244094e+01 1 -1 0
1599 444 1 4.1499999999999998e-01 2.0666163039897345e+00 9.5548650254770546e+00 3.2203472285431978e+01 -1 0 0
1009 444 2 -8.2999999999999996e-01 4.6589315938307010e+00 1.4158112726048721e+01 3.2006061222304950e+01 4 3 0
961 444 2 -8.2999999999999996e-01 5.3565688442988302e+00 8.9110664299450484e+00 2.8329546296247262e+01 5 -4 0
435 444 1 4.1499999999999998e-01 4.5142800793417397e+00 1.0207581134119655e+01 2.9295565464013244e+01 -2 2 0
1597 444 2 -8.2999999999999996e-01 2.7184004302368869e+00 1.0234595954651803e+01 3.2374865160874926e+01 -1 0 0
433 444 2 -8.2999999999999996e-01 4.2420077281245447e+00 1.0603599007178490e+01 3.0123375502451509e+01 -2 2 0
1389 444 1 4.1499999999999998e-01 1.1877896703522690e+00 1.0822795430955573e+01 2.7948394079135497e+01 -3 -1 0
127 444 2 -8.2999999999999996e-01 2.8749705717244054e+00 1.4367312769548917e+01 2.9297581750338690e+01 2 2 0
128 444 1 4.1499999999999998e-01 3.7213630656756238e+00 1.4575554139366840e+01 2.8901997110021981e+01 2 2 0
1525 444 2 -8.2999999999999996e-01 8.6550690796292418e-01 1.4743991629729903e+01 2.6840621374030537e+01 0 4 0
1526 444 1 4.1499999999999998e-01 1.6876137633881323e+00 1.4428874646831833e+01 2.7216219157304931e+01 0 4 0
2600 444 1 4.1499999999999998e-01 1.1126784783354389e+00 1.0726548580026133e+01 3.2312418051936959e+01 -2 -1 0
690 444 1 4.1499999999999998e-01 3.8971034756204528e+00 1.2674912480559673e+01 2.5711734180462614e+01 -1 -3 0