LAMMPS data file via write_data, version 11 Aug 2017, timestep = 1000000

3579 atoms
13 atom types
2024 bonds
5 bond types
1018 angles
5 angle types
12 dihedrals
4 dihedral types
9 impropers
1 improper types

0.0000000000000000e+00 3.2704500000000003e+01 xlo xhi
0.0000000000000000e+00 3.2704500000000003e+01 ylo yhi
0.0000000000000000e+00 8.0000000000000000e+01 zlo zhi

Masses

1 1.0079
2 15.9994
3 39.0983
4 63.546
5 15.9994
6 12.011
7 12.011
8 1.0079
9 12.011
10 15.9994
11 15.9994
12 15.9994
13 1.0079

Bond Coeffs # harmonic

1 450 0.9572
2 570 1.229
3 450 1.364
4 570 1.229
5 553 0.945

Angle Coeffs # harmonic

1 100 123.32
2 85 124
3 55 104.52
4 35 113
5 100 123.32

Dihedral Coeffs # charmm

1 0.922 1 180 0
2 3.741 2 0 0
3 0.922 1 0 0
4 3.741 2 180 0

Improper Coeffs # umbrella

1 21 0

Atoms # full

3049 444 4 -7.4069999999999997e-02 1.6779500000000001e+00 6.7501999999999995e-01 3.5985700000000000e+00 0 0 0
3051 444 4 0.0000000000000000e+00 1.6560500000000000e+00 2.4790000000000001e+00 1.8169999999999999e+00 0 0 0
3060 444 4 0.0000000000000000e+00 1.6560500000000000e+00 6.6205000000000003e-01 0.0000000000000000e+00 0 0 0
65 444 1 4.1499999999999998e-01 8.8248717687995126e-01 3.3428751503677168e+00 6.9947674823801966e+00 2 0 0
64 444 2 -8.2999999999999996e-01 1.3078968572298619e-01 3.8571786379371775e+00 7.2891755903055122e+00 2 0 0
1497 444 1 4.1499999999999998e-01 9.6189903111286179e-01 2.7685108295068772e-01 9.4688512438769195e+00 -2 3 0
2823 444 1 4.1499999999999998e-01 3.6784892674207503e-01 1.1531388344100497e+00 1.3244889701214333e+01 0 -3 0
1710 444 1 4.1499999999999998e-01 6.4884716315893487e-01 3.2722219447166734e+00 1.2312320600119737e+01 -2 4 0
1708 444 2 -8.2999999999999996e-01 6.7027335828891232e-01 4.0381797439218374e+00 1.1738664406530535e+01 -2 4 0
1495 444 2 -8.2999999999999996e-01 1.7480886229634612e-01 5.6965394118463575e-01 9.9281859427168531e+00 -2 3 0
2821 444 2 -8.2999999999999996e-01 1.2009145871387021e+00 1.6006366108853105e+00 1.3096635830400428e+01 0 -3 0
2822 444 1 4.1499999999999998e-01 1.8436950689457241e+00 8.9467900515651499e-01 1.3028159762316337e+01 0 -3 0
1709 444 1 4.1499999999999998e-01 1.5676952497367793e+00 4.0643853135373176e+00 1.1406732085353671e+01 -2 4 0
2887 444 2 -8.2999999999999996e-01 1.8028776199239147e-01 1.3600795003506574e+00 1.7812748415197650e+01 2 -1 0
2889 444 1 4.1499999999999998e-01 1.1233062217086789e+00 1.4666580583789981e+00 1.7687891990956082e+01 2 -1 0
3066 444 4 0.0000000000000000e+00 1.6560500000000000e+00 4.2959500000000004e+00 0.0000000000000000e+00 0 0 0
3067 444 4 -7.4069999999999997e-02 1.6714000000000000e+00 4.2765000000000004e+00 3.5693600000000001e+00 0 0 0
3069 444 4 0.0000000000000000e+00 1.6560500000000000e+00 6.1128000000000000e+00 1.8169999999999999e+00 0 0 0
3086 444 4 0.0000000000000000e+00 1.6560500000000000e+00 7.9297500000000003e+00 0.0000000000000000e+00 0 0 0
3087 444 4 -7.4069999999999997e-02 1.7129000000000001e+00 7.9725999999999999e+00 3.5737999999999999e+00 0 0 0
977 444 1 4.1499999999999998e-01 1.2004379381646888e+00 7.3122090048888584e+00 6.2304739922852024e+00 -3 -2 0
976 444 2 -8.2999999999999996e-01 8.4567160491342142e-01 7.6557003208601273e+00 7.0504659606670863e+00 -3 -2 0
3027 444 3 1.0000000000000000e+00 1.0910242091964439e+00 5.7535605628174533e+00 8.9187724583195980e+00 4 -1 0
1133 444 1 4.1499999999999998e-01 5.5596601238376364e-01 5.7636568983677359e+00 1.2278594080542524e+01 -4 3 0
1132 444 2 -8.2999999999999996e-01 5.2739457914301457e-01 6.7204297631367744e+00 1.2277492184380764e+01 -4 3 0
3012 444 1 4.1499999999999998e-01 8.1483372670435050e-01 5.8265147326207147e+00 1.5201107481982513e+01 2 -4 0
3011 444 1 4.1499999999999998e-01 3.0676219492852593e-02 7.0288345105659129e+00 1.5682168155486453e+01 2 -4 0
3010 444 2 -8.2999999999999996e-01 3.5979236926618266e-03 6.0727190160201401e+00 1.5645530989396988e+01 2 -4 0
2426 444 1 4.1499999999999998e-01 1.9340333569768167e+00 7.6186360849069743e+00 1.1736832930188280e+01 5 1 0
188 444 1 4.1499999999999998e-01 1.1840265429305261e+00 7.1488910215007158e+00 1.8757630443950458e+01 -5 5 0
189 444 1 4.1499999999999998e-01 1.5413148057278201e+00 7.9755194165319070e+00 1.7540697505179988e+01 -5 5 0
2872 444 2 -8.2999999999999996e-01 1.9711251139511698e+00 4.4856284683193239e+00 1.7951508210846935e+01 -4 1 0
187 444 2 -8.2999999999999996e-01 8.1806509387109494e-01 7.7778021333419138e+00 1.8135718155550446e+01 -5 5 0
2874 444 1 4.1499999999999998e-01 1.0144816014634275e+00 4.5022981809312208e+00 1.7979576527897851e+01 -4 1 0
3089 444 4 0.0000000000000000e+00 1.6560500000000000e+00 9.7467000000000006e+00 1.8169999999999999e+00 0 0 0
3108 444 4 -7.4069999999999997e-02 1.6779500000000001e+00 1.1576520000000000e+01 3.5985700000000000e+00 0 0 0
3119 444 4 0.0000000000000000e+00 1.6560500000000000e+00 1.1563549999999999e+01 0.0000000000000000e+00 0 0 0
934 444 2 -8.2999999999999996e-01 5.9088287303775877e-01 1.1565711697233263e+01 7.2734899577866958e+00 1 1 0
1685 444 1 4.1499999999999998e-01 1.7793091798360838e-01 1.0952133230989816e+01 1.1908333760477680e+01 6 0 0
1684 444 2 -8.2999999999999996e-01 6.9740456383398397e-01 1.1432387053620792e+01 1.2553109103255842e+01 6 0 0
3024 444 3 1.0000000000000000e+00 1.4182101365824202e+00 1.1005727912620129e+01 1.5044406003106628e+01 1 2 0
1104 444 1 4.1499999999999998e-01 1.8041146824601895e-01 9.2966426610393764e+00 9.8242794643853166e+00 -2 1 0
1102 444 2 -8.2999999999999996e-01 1.0320533151684310e+00 8.9881323744360078e+00 9.5148263274013001e+00 -2 1 0
1103 444 1 4.1499999999999998e-01 9.1559996595651127e-01 8.8673249906951330e+00 8.5724482870726586e+00 -2 1 0
2341 444 2 -8.2999999999999996e-01 9.6904023605983747e-01 8.5385147651671307e+00 1.4229984686297122e+01 2 2 0
599 444 1 4.1499999999999998e-01 8.9403440548299939e-01 1.1848100695390729e+01 9.1535989184568880e+00 2 4 0
1686 444 1 4.1499999999999998e-01 1.4119762016852377e+00 1.1818147010259018e+01 1.2046346391043400e+01 6 0 0
2343 444 1 4.1499999999999998e-01 3.5320212108102261e-01 8.2573296555368767e+00 1.3553293694286650e+01 2 2 0
2342 444 1 4.1499999999999998e-01 1.8279894671472190e+00 8.4815288408122083e+00 1.3811425985244046e+01 2 2 0
2162 444 1 4.1499999999999998e-01 1.1803791158638293e+00 1.0914690067612433e+01 1.8109027003255704e+01 2 -2 0
1384 444 2 -8.2999999999999996e-01 2.0610381641070197e-01 9.4492212736962475e+00 1.9972025272654232e+01 -1 -2 0
1386 444 1 4.1499999999999998e-01 3.8532281662256113e-01 8.7983341311293426e+00 1.9293454456510229e+01 -1 -2 0
2161 444 2 -8.2999999999999996e-01 2.0066243965839043e+00 1.1200362854467013e+01 1.7719229904739684e+01 2 -2 0
3110 444 4 0.0000000000000000e+00 1.6560500000000000e+00 1.3380500000000000e+01 1.8169999999999999e+00 0 0 0
3125 444 4 0.0000000000000000e+00 1.6560500000000000e+00 1.5197450000000000e+01 0.0000000000000000e+00 0 0 0
3126 444 4 -7.4069999999999997e-02 1.6714000000000000e+00 1.5178000000000001e+01 3.5693600000000001e+00 0 0 0
936 444 1 4.1499999999999998e-01 2.4504871773239589e-01 1.2291984850550984e+01 6.7546856646519213e+00 1 1 0
257 444 1 4.1499999999999998e-01 2.0264374991994267e+00 1.3302358450516945e+01 6.3690159117951648e+00 -3 1 0
2481 444 1 4.1499999999999998e-01 1.2652413961954492e+00 1.5931398329801006e+01 9.3054623080424079e+00 -1 1 0
442 444 2 -8.2999999999999996e-01 8.8962498280336000e-01 1.3695365600377970e+01 1.5159375205091713e+01 3 0 0
443 444 1 4.1499999999999998e-01 1.5650282859277034e+00 1.4091662799972680e+01 1.5709839961321554e+01 3 0 0
600 444 1 4.1499999999999998e-01 1.1647554233393147e+00 1.3271498428647686e+01 9.5923979391482046e+00 2 4 0
2479 444 2 -8.2999999999999996e-01 1.1656985799981150e+00 1.4983811918063656e+01 9.2137939926823265e+00 -1 1 0
444 444 1 4.1499999999999998e-01 6.8411963797409339e-02 1.4065438100448402e+01 1.5483239447565168e+01 3 0 0
2480 444 1 4.1499999999999998e-01 1.6841206273148628e+00 1.4761748784002389e+01 8.4403869872139765e+00 -1 1 0
598 444 2 -8.2999999999999996e-01 1.2231249011068750e+00 1.2363592130557825e+01 9.8899415447786669e+00 2 4 0
3128 444 4 0.0000000000000000e+00 1.6560500000000000e+00 1.7014299999999999e+01 1.8169999999999999e+00 0 0 0
3145 444 4 0.0000000000000000e+00 1.6560500000000000e+00 1.8831250000000001e+01 0.0000000000000000e+00 0 0 0
3146 444 4 -7.4069999999999997e-02 1.7129000000000001e+00 1.8874099999999999e+01 3.5737999999999999e+00 0 0 0
1388 444 1 4.1499999999999998e-01 1.1658960277189516e+00 1.9595591565514564e+01 7.3834579700553453e+00 -1 1 0
1387 444 2 -8.2999999999999996e-01 1.0318076727570300e+00 1.8702391980614767e+01 7.0665244250322621e+00 -1 1 0
1389 444 1 4.1499999999999998e-01 2.7595143929352484e-01 1.8765848328571632e+01 6.4826691967091321e+00 -1 1 0
2574 444 1 4.1499999999999998e-01 4.6945682425759172e-01 1.9910461336215537e+01 1.4474863030171013e+01 1 -6 0
1278 444 1 4.1499999999999998e-01 7.1777670195796828e-01 1.7707227485387754e+01 8.3452517450122290e+00 0 3 0
1276 444 2 -8.2999999999999996e-01 6.9448586501974774e-01 1.7504170075039962e+01 9.2803764290249653e+00 0 3 0
1671 444 1 4.1499999999999998e-01 1.9316238923053328e+00 1.9050269921904185e+01 1.0031314077726579e+01 6 -1 0
1323 444 1 4.1499999999999998e-01 7.1370233922440829e-01 1.7008195768835176e+01 1.7301871094456576e+01 4 -5 0
1817 444 1 4.1499999999999998e-01 1.0511393158954878e+00 1.8624362528140530e+01 1.9914538530191670e+01 3 0 0
1322 444 1 4.1499999999999998e-01 6.3749856776188302e-02 1.6981321091876364e+01 1.8668887812758975e+01 4 -5 0
3148 444 4 0.0000000000000000e+00 1.6560500000000000e+00 2.0648199999999999e+01 1.8169999999999999e+00 0 0 0
3167 444 4 -7.4069999999999997e-02 1.6779500000000001e+00 2.2478020000000001e+01 3.5985700000000000e+00 0 0 0
3169 444 4 0.0000000000000000e+00 1.6560500000000000e+00 2.4282000000000000e+01 1.8169999999999999e+00 0 0 0
3178 444 4 0.0000000000000000e+00 1.6560500000000000e+00 2.2465050000000002e+01 0.0000000000000000e+00 0 0 0
381 444 1 4.1499999999999998e-01 1.2255864438609836e-01 2.3317599081871172e+01 6.2508579578302204e+00 1 1 0
379 444 2 -8.2999999999999996e-01 7.3339804262799291e-01 2.3943655672786711e+01 6.6396514390715291e+00 1 1 0
380 444 1 4.1499999999999998e-01 1.4659730421107930e+00 2.3977826254887486e+01 6.0245105517839335e+00 1 1 0
2572 444 2 -8.2999999999999996e-01 1.1081452008621653e+00 2.0550102344656278e+01 1.4789774627566032e+01 1 -6 0
1310 444 1 4.1499999999999998e-01 1.9544252916085012e+00 2.0946353697391050e+01 1.1893918144421791e+01 0 -4 0
77 444 1 4.1499999999999998e-01 1.2809275380714096e+00 2.3288231990148603e+01 1.2915338469356938e+01 -4 0 0
931 444 2 -8.2999999999999996e-01 5.4251935187380362e-01 2.3761259974720105e+01 9.4651514148928850e+00 7 0 0
1990 444 2 -8.2999999999999996e-01 1.5973710542661483e+00 2.1436144244638143e+01 8.2826516458261601e+00 -3 -1 0
2573 444 1 4.1499999999999998e-01 8.9291006305731035e-01 2.0668688861603574e+01 1.5714892770087772e+01 1 -6 0
1992 444 1 4.1499999999999998e-01 9.8408780010537000e-01 2.2116563322851690e+01 8.0049002192109207e+00 -3 -1 0
932 444 1 4.1499999999999998e-01 1.4824330228046396e+00 2.3647278857275815e+01 9.6058737868688784e+00 7 0 0
933 444 1 4.1499999999999998e-01 4.7454295083471759e-01 2.4127447346492247e+01 8.5833811535038471e+00 7 0 0
1311 444 1 4.1499999999999998e-01 1.5805996328213345e+00 2.1231127029882781e+01 1.3333033749346853e+01 0 -4 0
1309 444 2 -8.2999999999999996e-01 1.8722822047365568e+00 2.1658789726750463e+01 1.2527889180558841e+01 0 -4 0
78 444 1 4.1499999999999998e-01 2.3090573344975307e-01 2.4373510181973018e+01 1.2808004213285045e+01 -4 0 0
76 444 2 -8.2999999999999996e-01 1.0587191946165522e+00 2.4161167273998512e+01 1.3239127424650940e+01 -4 0 0
1670 444 1 4.1499999999999998e-01 1.7812890232679117e+00 2.0535554053786356e+01 9.7798669565699452e+00 6 -1 0
2681 444 1 4.1499999999999998e-01 9.3412799751224851e-01 2.2190065278301823e+01 1.7460904110348174e+01 1 -1 0
228 444 1 4.1499999999999998e-01 2.0013728129010997e+00 2.3669947403832097e+01 1.9096620928405009e+01 -1 -1 0
2680 444 2 -8.2999999999999996e-01 1.8370825918769000e+00 2.2407614609595395e+01 1.7692373216935522e+01 1 -1 0
3184 444 4 0.0000000000000000e+00 1.6560500000000000e+00 2.6098949999999999e+01 0.0000000000000000e+00 0 0 0
3185 444 4 -7.4069999999999997e-02 1.6714000000000000e+00 2.6079499999999999e+01 3.5693600000000001e+00 0 0 0
3187 444 4 0.0000000000000000e+00 1.6560500000000000e+00 2.7915800000000001e+01 1.8169999999999999e+00 0 0 0
668 444 1 4.1499999999999998e-01 8.0384073784143029e-01 2.7029940109672921e+01 6.2827651339923820e+00 2 4 0
667 444 2 -8.2999999999999996e-01 1.4551167465619528e+00 2.7321351345157812e+01 6.9208489833266871e+00 2 4 0
669 444 1 4.1499999999999998e-01 1.7080699307191847e+00 2.8195334946760180e+01 6.6235285372834971e+00 2 4 0
1176 444 1 4.1499999999999998e-01 9.7166265137509211e-01 2.7074836158271914e+01 8.4675820946122506e+00 -1 -3 0
1175 444 1 4.1499999999999998e-01 1.6517781739674506e+00 2.6861448663400530e+01 9.8031732939663527e+00 -1 -3 0
791 444 1 4.1499999999999998e-01 1.9668596888710461e+00 2.6681121625243936e+01 1.5533549564001151e+01 2 1 0
1174 444 2 -8.2999999999999996e-01 7.9420279918170211e-01 2.7013808725771810e+01 9.4062063725767366e+00 -1 -3 0
1381 444 2 -8.2999999999999996e-01 1.2270294520203999e+00 2.8259568091789564e+01 1.2783468748801488e+01 2 -3 0
2837 444 1 4.1499999999999998e-01 1.4937479844073529e+00 2.5594280629681144e+01 1.8051038714189925e+01 1 -1 0
2836 444 2 -8.2999999999999996e-01 8.7087318135521463e-01 2.6013371716508480e+01 1.7457218595668301e+01 1 -1 0
2838 444 1 4.1499999999999998e-01 1.2208108191442781e-02 2.5728968484245375e+01 1.7770335377063201e+01 1 -1 0
2876 444 1 4.1499999999999998e-01 1.6660420397766937e+00 2.7536701255607554e+01 1.7729985360856304e+01 -9 -8 0
2875 444 2 -8.2999999999999996e-01 1.9806976852135649e+00 2.8396288351888106e+01 1.8009868643154896e+01 -9 -8 0
3204 444 4 0.0000000000000000e+00 1.6560500000000000e+00 2.9732749999999999e+01 0.0000000000000000e+00 0 0 0
3205 444 4 -7.4069999999999997e-02 1.7129000000000001e+00 2.9775600000000001e+01 3.5737999999999999e+00 0 0 0
3207 444 4 0.0000000000000000e+00 1.6560500000000000e+00 3.1549700000000001e+01 1.8169999999999999e+00 0 0 0
2281 444 2 -8.2999999999999996e-01 1.1735706032517679e+00 3.0145168839836174e+01 6.4786337882537834e+00 -3 0 0
2283 444 1 4.1499999999999998e-01 6.7365486018105214e-01 2.9607838608468025e+01 5.8641481004663536e+00 -3 0 0
2282 444 1 4.1499999999999998e-01 1.0117767706632863e+00 3.1045514947790728e+01 6.1967973709664630e+00 -3 0 0
2788 444 2 -8.2999999999999996e-01 1.1473527094706280e+00 2.9852122659840052e+01 1.0765889708658879e+01 2 6 0
2789 444 1 4.1499999999999998e-01 5.6642927191936576e-01 3.0075247332692026e+01 1.0038582041444055e+01 2 6 0
1382 444 1 4.1499999999999998e-01 1.3490975407781631e+00 2.8974688942130747e+01 1.2159022255065210e+01 2 -3 0
2790 444 1 4.1499999999999998e-01 1.9097886460920064e+00 2.9450237520954769e+01 1.0349460966044333e+01 2 6 0
611 444 1 4.1499999999999998e-01 1.6997802563022320e+00 3.0541971236467798e+01 1.5556792937618543e+01 2 -1 0
612 444 1 4.1499999999999998e-01 2.2190893551607363e-01 3.0867786555828989e+01 1.5516342303876016e+01 2 -1 0
1154 444 1 4.1499999999999998e-01 3.1732363153667142e-01 3.0437818822498038e+01 8.0461461204031615e+00 -2 -4 0
610 444 2 -8.2999999999999996e-01 8.6941525090445038e-01 3.0246333050227108e+01 1.5183530495581879e+01 2 -1 0
1383 444 1 4.1499999999999998e-01 8.3990673056812026e-01 2.8676555941653177e+01 1.3553201808151744e+01 2 -3 0
2563 444 2 -8.2999999999999996e-01 6.6873833892656998e-01 3.0722491176584906e+01 1.9427605213163613e+01 4 -2 0
2564 444 1 4.1499999999999998e-01 9.7436794976590846e-01 2.9954044112723299e+01 1.8945617764989485e+01 4 -2 0
3050 444 4 0.0000000000000000e+00 3.4729999999999999e+00 6.6205000000000003e-01 1.8169999999999999e+00 0 0 0
3074 444 4 -7.4069999999999997e-02 3.4762800000000000e+00 2.4616400000000001e+00 3.5975299999999999e+00 0 0 0
3075 444 4 0.0000000000000000e+00 3.4729999999999999e+00 2.4790000000000001e+00 0.0000000000000000e+00 0 0 0
1259 444 1 4.1499999999999998e-01 3.4332694105503667e+00 2.9256284433029704e+00 6.1971457087535446e+00 3 0 0
1258 444 2 -8.2999999999999996e-01 2.6122026989139702e+00 3.1574526299802201e+00 6.6311264528077452e+00 3 0 0
173 444 1 4.1499999999999998e-01 3.8219471504421074e+00 8.7890083922348994e-01 6.2394555074176079e+00 -2 -1 0
2920 444 2 -8.2999999999999996e-01 2.3938155789483138e+00 6.8110104988053655e-01 8.6735505151068306e+00 0 -3 0
2922 444 1 4.1499999999999998e-01 3.2169562438355013e+00 5.7695006488609879e-01 8.1962405919045302e+00 0 -3 0
1969 444 2 -8.2999999999999996e-01 3.2649896521559962e+00 3.1058527783888379e+00 1.4354719407431597e+01 0 6 0
1971 444 1 4.1499999999999998e-01 2.4806952661259927e+00 2.6905897604630664e+00 1.3996010844210890e+01 0 6 0
3015 444 1 4.1499999999999998e-01 4.0822348196444738e+00 1.7612773017809860e+00 9.5092933733064875e+00 -2 0 0
2921 444 1 4.1499999999999998e-01 2.1172631081021422e+00 1.5773091781267687e+00 8.4823385804068270e+00 0 -3 0
1970 444 1 4.1499999999999998e-01 3.8859318468709119e+00 3.1154802215664361e+00 1.3626316398435272e+01 0 6 0
278 444 1 4.1499999999999998e-01 3.6493235313719259e+00 3.9353471498195218e+00 1.0122691290118611e+01 -3 0 0
2202 444 1 4.1499999999999998e-01 3.2517309667486036e+00 3.1369516797180403e+00 1.7699123099073717e+01 -3 -1 0
2200 444 2 -8.2999999999999996e-01 3.5910685650838619e+00 2.3281933314475065e+00 1.7315726516546487e+01 -3 -1 0
2201 444 1 4.1499999999999998e-01 3.6293573493195290e+00 2.5057465114858126e+00 1.6375917261517479e+01 -3 -1 0
1812 444 1 4.1499999999999998e-01 4.0790067755225552e+00 6.7815006806455513e-01 1.7540835643750416e+01 5 0 0
3064 444 4 0.0000000000000000e+00 3.4729999999999999e+00 6.1128000000000000e+00 0.0000000000000000e+00 0 0 0
3065 444 4 -7.4069999999999997e-02 3.4751300000000001e+00 6.1117800000000004e+00 3.5788400000000000e+00 0 0 0
3068 444 4 0.0000000000000000e+00 3.4729999999999999e+00 4.2959500000000004e+00 1.8169999999999999e+00 0 0 0
3088 444 4 0.0000000000000000e+00 3.4729999999999999e+00 7.9297500000000003e+00 1.8169999999999999e+00 0 0 0
1898 444 1 4.1499999999999998e-01 3.9560115805919684e+00 5.4632140478100668e+00 7.1105674378887125e+00 2 -3 0
1899 444 1 4.1499999999999998e-01 3.2922964857606725e+00 6.8165927272077917e+00 6.9700554710591138e+00 2 -3 0
1897 444 2 -8.2999999999999996e-01 3.1195988800926902e+00 5.8777881280395174e+00 6.8989687958773720e+00 2 -3 0
1260 444 1 4.1499999999999998e-01 2.5691665889081525e+00 4.1116839970044374e+00 6.5692933431995195e+00 3 0 0
2584 444 2 -8.2999999999999996e-01 3.0353816010056867e+00 5.4594424806412718e+00 1.5216332230637184e+01 3 2 0
279 444 1 4.1499999999999998e-01 3.5556936862768911e+00 5.3936242787636095e+00 1.0518363430917132e+01 -3 0 0
2586 444 1 4.1499999999999998e-01 3.2494575221702044e+00 4.5650458401464427e+00 1.4950892937638962e+01 3 2 0
277 444 2 -8.2999999999999996e-01 3.0251576254702290e+00 4.6056122925116831e+00 1.0400888024615943e+01 -3 0 0
2585 444 1 4.1499999999999998e-01 3.1768948143450579e+00 5.9840289866403413e+00 1.4428287279483355e+01 3 2 0
2724 444 1 4.1499999999999998e-01 3.9670197275479344e+00 7.5822999796356099e+00 1.0430073233606892e+01 4 3 0
2459 444 1 4.1499999999999998e-01 3.3285258578414871e+00 8.0831942009878777e+00 1.5917165148600050e+01 2 2 0
2460 444 1 4.1499999999999998e-01 3.0660694392272316e+00 6.8056375221458962e+00 1.6685839807094020e+01 2 2 0
2458 444 2 -8.2999999999999996e-01 3.0451208127338809e+00 7.7587273950998288e+00 1.6771936895579461e+01 2 2 0
2873 444 1 4.1499999999999998e-01 2.2414164717371774e+00 5.1507223643939559e+00 1.8584615510898562e+01 -4 1 0
3084 444 4 0.0000000000000000e+00 3.4729999999999999e+00 9.7467000000000006e+00 0.0000000000000000e+00 0 0 0
3085 444 4 -7.4069999999999997e-02 3.4859100000000001e+00 9.7680199999999999e+00 3.5986600000000002e+00 0 0 0
3109 444 4 0.0000000000000000e+00 3.4729999999999999e+00 1.1563549999999999e+01 1.8169999999999999e+00 0 0 0
2149 444 2 -8.2999999999999996e-01 2.8503190543853192e+00 1.0196174635145683e+01 7.1809090872096020e+00 4 1 0
2151 444 1 4.1499999999999998e-01 2.1171056519552320e+00 1.0740586824030975e+01 7.4676935746883979e+00 4 1 0
2150 444 1 4.1499999999999998e-01 2.5266464384445757e+00 9.7507646274195228e+00 6.3979162353114898e+00 4 1 0
2425 444 2 -8.2999999999999996e-01 2.5353040290309079e+00 8.2862230788625606e+00 1.1406631366538511e+01 5 1 0
2427 444 1 4.1499999999999998e-01 2.1204449624192487e+00 8.6081169404988671e+00 1.0606313782521932e+01 5 1 0
771 444 1 4.1499999999999998e-01 3.9000684693155256e+00 9.3513929100351145e+00 1.3994124900818640e+01 3 -1 0
647 444 1 4.1499999999999998e-01 3.5462003205152297e+00 1.0050762626451471e+01 1.1548928414908296e+01 1 -4 0
648 444 1 4.1499999999999998e-01 3.1238400316906638e+00 1.1067532647048722e+01 1.0509849128681383e+01 1 -4 0
769 444 2 -8.2999999999999996e-01 3.7557019876383593e+00 8.4278894413360668e+00 1.4200356575593799e+01 3 -1 0
646 444 2 -8.2999999999999996e-01 3.6886401157702755e+00 1.0956701422613421e+01 1.1274669104590519e+01 1 -4 0
2367 444 1 4.1499999999999998e-01 3.5622853237976373e+00 8.7496007020252051e+00 1.8400324437945013e+01 -1 -1 0
2366 444 1 4.1499999999999998e-01 2.9192940233820077e+00 9.1547863362225055e+00 1.9709630381678593e+01 -1 -1 0
2163 444 1 4.1499999999999998e-01 2.4556402464261824e+00 1.1667323711569306e+01 1.8423903704720090e+01 2 -2 0
2365 444 2 -8.2999999999999996e-01 3.7617733775360866e+00 9.1295139780061998e+00 1.9255954435939731e+01 -1 -1 0
3127 444 4 0.0000000000000000e+00 3.4729999999999999e+00 1.5197450000000000e+01 1.8169999999999999e+00 0 0 0
3133 444 4 -7.4069999999999997e-02 3.4762800000000000e+00 1.3363140000000000e+01 3.5975299999999999e+00 0 0 0
3134 444 4 0.0000000000000000e+00 3.4729999999999999e+00 1.3380500000000000e+01 0.0000000000000000e+00 0 0 0
256 444 2 -8.2999999999999996e-01 2.9342650243671557e+00 1.3210237677476545e+01 6.6581438582614414e+00 -3 1 0
573 444 1 4.1499999999999998e-01 3.1922765703985041e+00 1.5841114689151198e+01 6.3827084652085384e+00 -1 1 0
571 444 2 -8.2999999999999996e-01 2.7013900207111696e+00 1.6221590364991727e+01 7.1110632190074625e+00 -1 1 0
258 444 1 4.1499999999999998e-01 3.1151762943864432e+00 1.2273060653712864e+01 6.5860160859221955e+00 -3 1 0
917 444 1 4.1499999999999998e-01 3.9039176725083142e+00 1.4129454264947150e+01 1.5843408280175911e+01 1 1 0
916 444 2 -8.2999999999999996e-01 3.9546804416796970e+00 1.3753074197615824e+01 1.4964776933524334e+01 1 1 0
1248 444 1 4.1499999999999998e-01 2.7161021506735099e+00 1.5085319482969012e+01 1.7766433053342201e+01 -1 -3 0
798 444 1 4.1499999999999998e-01 2.9462145438098486e+00 1.3649280832425987e+01 1.9694447029843616e+01 1 -1 0
796 444 2 -8.2999999999999996e-01 3.3933964460244344e+00 1.2842171454494594e+01 1.9439820559447156e+01 1 -1 0
1246 444 2 -8.2999999999999996e-01 2.8048812460141277e+00 1.5095842465214512e+01 1.6813416991042370e+01 -1 -3 0
1247 444 1 4.1499999999999998e-01 2.7432539842896331e+00 1.6021300485304760e+01 1.6576854262094930e+01 -1 -3 0
1861 444 2 -8.2999999999999996e-01 2.1706069001035884e+00 1.5190111538804597e+01 1.9803894458252387e+01 1 -4 0
3123 444 4 0.0000000000000000e+00 3.4729999999999999e+00 1.7014299999999999e+01 0.0000000000000000e+00 0 0 0
3124 444 4 -7.4069999999999997e-02 3.4751300000000001e+00 1.7013280000000002e+01 3.5788400000000000e+00 0 0 0
3147 444 4 0.0000000000000000e+00 3.4729999999999999e+00 1.8831250000000001e+01 1.8169999999999999e+00 0 0 0
572 444 1 4.1499999999999998e-01 2.1202787456953507e+00 1.6861803977483344e+01 6.7003707216037522e+00 -1 1 0
898 444 2 -8.2999999999999996e-01 3.8273955350859592e+00 1.9709221049831807e+01 7.4241551182555376e+00 -2 3 0
899 444 1 4.1499999999999998e-01 3.3742661024746265e+00 1.9248027254345388e+01 6.7183179279547982e+00 -2 3 0
312 444 1 4.1499999999999998e-01 3.4660734314950838e+00 1.7132229032342892e+01 8.5430175769349610e+00 -3 -5 0
900 444 1 4.1499999999999998e-01 4.0556109226123400e+00 1.9023126786694803e+01 8.0513912548596238e+00 -2 3 0
2295 444 1 4.1499999999999998e-01 3.7712705439218626e+00 1.8700621960656832e+01 1.1662260264052632e+01 -1 -1 0
179 444 1 4.1499999999999998e-01 2.4044351884232791e+00 1.8648175086270957e+01 1.5983448894923058e+01 -3 2 0
1669 444 2 -8.2999999999999996e-01 2.0568144656704490e+00 1.9904463550314926e+01 1.0444729619025672e+01 6 -1 0
274 444 2 -8.2999999999999996e-01 2.6314920249759974e+00 1.9946438827813402e+01 1.8536365181655420e+01 -2 7 0
178 444 2 -8.2999999999999996e-01 2.2936413990257014e+00 1.8037461981771038e+01 1.6712136809951321e+01 -3 2 0
275 444 1 4.1499999999999998e-01 2.6832333954497929e+00 1.9671310849341300e+01 1.9451712290221913e+01 -2 7 0
180 444 1 4.1499999999999998e-01 2.3849950321251656e+00 1.8579641053299788e+01 1.7495672539750053e+01 -3 2 0
3143 444 4 0.0000000000000000e+00 3.4729999999999999e+00 2.0648199999999999e+01 0.0000000000000000e+00 0 0 0
3144 444 4 -7.4069999999999997e-02 3.4859100000000001e+00 2.0669519999999999e+01 3.5986600000000002e+00 0 0 0
3168 444 4 0.0000000000000000e+00 3.4729999999999999e+00 2.2465050000000002e+01 1.8169999999999999e+00 0 0 0
3192 444 4 -7.4069999999999997e-02 3.4762800000000000e+00 2.4264640000000000e+01 3.5975299999999999e+00 0 0 0
3193 444 4 0.0000000000000000e+00 3.4729999999999999e+00 2.4282000000000000e+01 0.0000000000000000e+00 0 0 0
2125 444 2 -8.2999999999999996e-01 3.5853522769479769e+00 2.2886122647358693e+01 6.7349145513947688e+00 0 -4 0
1991 444 1 4.1499999999999998e-01 2.3070336534366453e+00 2.1476483964848359e+01 7.6415712044735118e+00 -3 -1 0
2127 444 1 4.1499999999999998e-01 3.4481054122170947e+00 2.2334203509712957e+01 5.9649918854218784e+00 0 -4 0
2407 444 2 -8.2999999999999996e-01 3.0054617985954670e+00 2.3680325058564318e+01 1.5438001206775086e+01 -2 0 0
2409 444 1 4.1499999999999998e-01 3.5893204716372602e+00 2.3222664692359427e+01 1.4833114315212836e+01 -2 0 0
827 444 1 4.1499999999999998e-01 3.3472891744054318e+00 2.2820865159842832e+01 1.2175881334811717e+01 2 -3 0
2408 444 1 4.1499999999999998e-01 2.1697001265252625e+00 2.3729354821244822e+01 1.4973963583111304e+01 -2 0 0
226 444 2 -8.2999999999999996e-01 2.3144177809373363e+00 2.4522261995958697e+01 1.9399598718490100e+01 -1 -1 0
2682 444 1 4.1499999999999998e-01 2.1890471649972225e+00 2.2834034235816830e+01 1.6911015526584890e+01 1 -1 0
276 444 1 4.1499999999999998e-01 2.6176852778976629e+00 2.0902813204504902e+01 1.8573645575801407e+01 -2 7 0
3182 444 4 0.0000000000000000e+00 3.4729999999999999e+00 2.7915800000000001e+01 0.0000000000000000e+00 0 0 0
3183 444 4 -7.4069999999999997e-02 3.4751300000000001e+00 2.7914780000000000e+01 3.5788400000000000e+00 0 0 0
3186 444 4 0.0000000000000000e+00 3.4729999999999999e+00 2.6098949999999999e+01 1.8169999999999999e+00 0 0 0
1794 444 1 4.1499999999999998e-01 2.8956085689360767e+00 2.6199274965126754e+01 6.9557978198984447e+00 4 -2 0
1792 444 2 -8.2999999999999996e-01 3.7340622120788072e+00 2.5853611835873437e+01 7.2619768828886659e+00 4 -2 0
1793 444 1 4.1499999999999998e-01 3.6675167881962647e+00 2.4908281996892811e+01 7.1272338363975933e+00 4 -2 0
3029 444 3 1.0000000000000000e+00 3.0676001471103138e+00 2.6386086972551688e+01 1.2841435613312481e+01 1 1 0
910 444 2 -8.2999999999999996e-01 3.6390046615614380e+00 2.5138863170687625e+01 1.0277982517244631e+01 -7 0 0
792 444 1 4.1499999999999998e-01 2.6284386587991837e+00 2.8021809035211156e+01 1.5771805214914748e+01 2 1 0
790 444 2 -8.2999999999999996e-01 2.6497991767665035e+00 2.7259275457083195e+01 1.5193602426634360e+01 2 1 0
729 444 1 4.1499999999999998e-01 4.0384973280228680e+00 2.8521204632834717e+01 1.0971757063226868e+01 4 -6 0
1542 444 1 4.1499999999999998e-01 3.5503780421901068e+00 2.4960880047789658e+01 1.8292502659110422e+01 1 -5 0
2877 444 1 4.1499999999999998e-01 2.8460056319634708e+00 2.8225663429267854e+01 1.8381838818464793e+01 -9 -8 0
1541 444 1 4.1499999999999998e-01 3.9530518198354865e+00 2.4706356402422209e+01 1.6855503269138726e+01 1 -5 0
1540 444 2 -8.2999999999999996e-01 4.0834292189310464e+00 2.5316494416041078e+01 1.7581427503627410e+01 1 -5 0
3202 444 4 0.0000000000000000e+00 3.4729999999999999e+00 3.1549700000000001e+01 0.0000000000000000e+00 0 0 0
3203 444 4 -7.4069999999999997e-02 3.4859100000000001e+00 3.1571020000000001e+01 3.5986600000000002e+00 0 0 0
3206 444 4 0.0000000000000000e+00 3.4729999999999999e+00 2.9732749999999999e+01 1.8169999999999999e+00 0 0 0
1568 444 1 4.1499999999999998e-01 3.1141621136961111e+00 3.0280402203628771e+01 6.3244045309853636e+00 3 -2 0
1567 444 2 -8.2999999999999996e-01 3.9691976881435749e+00 3.0541070076626681e+01 6.6667479406311987e+00 3 -2 0
2499 444 1 4.1499999999999998e-01 2.1664908173514008e+00 3.1459034340661862e+01 1.1812216391003544e+01 -4 3 0
2498 444 1 4.1499999999999998e-01 2.9423638367829206e+00 3.1156127161540621e+01 1.3076401342082923e+01 -4 3 0
845 444 1 4.1499999999999998e-01 3.3347240459993883e+00 3.1687869030809388e+01 9.5032431554609627e+00 6 -2 0
2497 444 2 -8.2999999999999996e-01 2.5661597597018009e+00 3.1878813181465826e+01 1.2573979425321314e+01 -4 3 0
727 444 2 -8.2999999999999996e-01 3.4072433191471632e+00 2.8689153993357152e+01 1.0272082711668808e+01 4 -6 0
728 444 1 4.1499999999999998e-01 3.8641090987956987e+00 2.9279987770663190e+01 9.6733995651269993e+00 4 -6 0
291 444 1 4.1499999999999998e-01 3.8727950887189877e+00 3.0389256905103569e+01 1.5236613519641811e+01 -4 -3 0
623 444 1 4.1499999999999998e-01 3.5285181636563436e+00 3.1323604196877778e+01 1.7177450974189465e+01 3 1 0
622 444 2 -8.2999999999999996e-01 3.0524211460914592e+00 3.0717919342224246e+01 1.6609375831149695e+01 3 1 0
624 444 1 4.1499999999999998e-01 2.5307757372761697e+00 3.0185468374349885e+01 1.7209887176308840e+01 3 1 0
3054 444 4 0.0000000000000000e+00 5.2898399999999999e+00 6.6205000000000003e-01 0.0000000000000000e+00 0 0 0
3055 444 4 -7.4069999999999997e-02 5.2739300000000000e+00 6.6298000000000001e-01 3.5972000000000000e+00 0 0 0